
     Program PWSCF v.6.5 starts on 27Feb2020 at 16:36:28 

     This program is part of the open-source Quantum ESPRESSO suite
     for quantum simulation of materials; please cite
         "P. Giannozzi et al., J. Phys.:Condens. Matter 21 395502 (2009);
         "P. Giannozzi et al., J. Phys.:Condens. Matter 29 465901 (2017);
          URL http://www.quantum-espresso.org", 
     in publications or presentations arising from this work. More details at
     http://www.quantum-espresso.org/quote

     Parallel version (MPI), running on     1 processors

     MPI processes distributed on     1 nodes
     Reading input from H20.pwi
Warning: card &CELL ignored
Warning: card / ignored

     Current dimensions of program PWSCF are:
     Max number of different atomic species (ntypx) = 10
     Max number of k-points (npk) =  40000
     Max angular momentum in pseudopotentials (lmaxx) =  3
               file O.pbe-n-kjpaw_psl.0.1.UPF: wavefunction(s)  2P renormalized

     gamma-point specific algorithms are used

     Subspace diagonalization in iterative solution of the eigenvalue problem:
     a serial algorithm will be used


     G-vector sticks info
     --------------------
     sticks:   dense  smooth     PW     G-vecs:    dense   smooth      PW
     Sum         793     793    193                16879    16879    2103



     bravais-lattice index     =            1
     lattice parameter (alat)  =      10.0000  a.u.
     unit-cell volume          =    1000.0000 (a.u.)^3
     number of atoms/cell      =            3
     number of atomic types    =            2
     number of electrons       =         8.00
     number of Kohn-Sham states=            4
     kinetic-energy cutoff     =      25.0000  Ry
     charge density cutoff     =     100.0000  Ry
     convergence threshold     =      1.0E-08
     mixing beta               =       0.7000
     number of iterations used =            8  plain     mixing
     Exchange-correlation= SLA PW PBX PBC
                           (   1   4   3   4   0   0   0)
     nstep                     =           50


     celldm(1)=  10.000000  celldm(2)=   0.000000  celldm(3)=   0.000000
     celldm(4)=   0.000000  celldm(5)=   0.000000  celldm(6)=   0.000000

     crystal axes: (cart. coord. in units of alat)
               a(1) = (   1.000000   0.000000   0.000000 )  
               a(2) = (   0.000000   1.000000   0.000000 )  
               a(3) = (   0.000000   0.000000   1.000000 )  

     reciprocal axes: (cart. coord. in units 2 pi/alat)
               b(1) = (  1.000000  0.000000  0.000000 )  
               b(2) = (  0.000000  1.000000  0.000000 )  
               b(3) = (  0.000000  0.000000  1.000000 )  


     PseudoPot. # 1 for H  read from file:
     /Users/matt/QE/SSSP_precision_pseudos/H_ONCV_PBE-1.0.oncvpsp.upf
     MD5 check sum: 1790becc920ee074925cf490c71280fe
     Pseudo is Norm-conserving, Zval =  1.0
     Generated using ONCVPSP code by D. R. Hamann
     Using radial grid of 1166 points,  2 beta functions with: 
                l(1) =   0
                l(2) =   0

     PseudoPot. # 2 for O  read from file:
     /Users/matt/QE/SSSP_precision_pseudos/O.pbe-n-kjpaw_psl.0.1.UPF
     MD5 check sum: 0234752ac141de4415c5fc33072bef88
     Pseudo is Projector augmented-wave + core cor, Zval =  6.0
     Generated using "atomic" code by A. Dal Corso v.5.0.99 svn rev. 10869
     Shape of augmentation charge: BESSEL
     Using radial grid of 1095 points,  4 beta functions with: 
                l(1) =   0
                l(2) =   0
                l(3) =   1
                l(4) =   1
     Q(r) pseudized with 0 coefficients 


     atomic species   valence    mass     pseudopotential
        H              1.00     1.00800     H ( 1.00)
        O              6.00    15.99900     O ( 1.00)

     No symmetry found



   Cartesian axes

     site n.     atom                  positions (alat units)
         1           H   tau(   1) = (   0.1889726   0.0018897   0.0056692  )
         2           H   tau(   2) = (  -0.1889726   0.0018897   0.0037795  )
         3           O   tau(   3) = (   0.0000000   0.0000000   0.0000000  )

     number of k points=     1
                       cart. coord. in units 2pi/alat
        k(    1) = (   0.0000000   0.0000000   0.0000000), wk =   2.0000000

     Dense  grid:     8440 G-vectors     FFT dimensions: (  32,  32,  32)

     Estimated max dynamical RAM per process >      13.51 MB

     Check: negative core charge=   -0.000123

     Initial potential from superposition of free atoms

     starting charge    7.99998, renormalised to    8.00000

     negative rho (up, down):  1.291E-04 0.000E+00
     Starting wfcs are    6 randomized atomic wfcs
     Checking if some PAW data can be deallocated... 

     total cpu time spent up to now is        0.7 secs

     Self-consistent Calculation

     iteration #  1     ecut=    25.00 Ry     beta= 0.70
     Davidson diagonalization with overlap
     ethr =  1.00E-02,  avg # of iterations =  2.0

     negative rho (up, down):  1.050E-03 0.000E+00

     total cpu time spent up to now is        0.7 secs

     total energy              =     -43.50987750 Ry
     Harris-Foulkes estimate   =     -43.80255446 Ry
     estimated scf accuracy    <       0.41217124 Ry

     iteration #  2     ecut=    25.00 Ry     beta= 0.70
     Davidson diagonalization with overlap
     ethr =  5.15E-03,  avg # of iterations =  2.0

     negative rho (up, down):  6.788E-04 0.000E+00

     total cpu time spent up to now is        0.8 secs

     total energy              =     -43.58383711 Ry
     Harris-Foulkes estimate   =     -43.77257654 Ry
     estimated scf accuracy    <       0.37358228 Ry

     iteration #  3     ecut=    25.00 Ry     beta= 0.70
     Davidson diagonalization with overlap
     ethr =  4.67E-03,  avg # of iterations =  2.0

     negative rho (up, down):  1.241E-03 0.000E+00

     total cpu time spent up to now is        0.9 secs

     total energy              =     -43.66855855 Ry
     Harris-Foulkes estimate   =     -43.67170129 Ry
     estimated scf accuracy    <       0.00669732 Ry

     iteration #  4     ecut=    25.00 Ry     beta= 0.70
     Davidson diagonalization with overlap
     ethr =  8.37E-05,  avg # of iterations =  2.0

     negative rho (up, down):  1.230E-03 0.000E+00

     total cpu time spent up to now is        1.0 secs

     total energy              =     -43.66964410 Ry
     Harris-Foulkes estimate   =     -43.66966413 Ry
     estimated scf accuracy    <       0.00005344 Ry

     iteration #  5     ecut=    25.00 Ry     beta= 0.70
     Davidson diagonalization with overlap
     ethr =  6.68E-07,  avg # of iterations =  2.0

     negative rho (up, down):  1.226E-03 0.000E+00

     total cpu time spent up to now is        1.0 secs

     total energy              =     -43.66966043 Ry
     Harris-Foulkes estimate   =     -43.66966179 Ry
     estimated scf accuracy    <       0.00000445 Ry

     iteration #  6     ecut=    25.00 Ry     beta= 0.70
     Davidson diagonalization with overlap
     ethr =  5.56E-08,  avg # of iterations =  2.0

     negative rho (up, down):  1.231E-03 0.000E+00

     total cpu time spent up to now is        1.1 secs

     total energy              =     -43.66966125 Ry
     Harris-Foulkes estimate   =     -43.66966143 Ry
     estimated scf accuracy    <       0.00000027 Ry

     iteration #  7     ecut=    25.00 Ry     beta= 0.70
     Davidson diagonalization with overlap
     ethr =  3.39E-09,  avg # of iterations =  2.0

     negative rho (up, down):  1.231E-03 0.000E+00

     total cpu time spent up to now is        1.2 secs

     End of self-consistent calculation

          k = 0.0000 0.0000 0.0000 (  1052 PWs)   bands (ev):

   -23.7051 -13.5872  -5.8875  -5.8828

     highest occupied level (ev):    -5.8828

!    total energy              =     -43.66966131 Ry
     Harris-Foulkes estimate   =     -43.66966131 Ry
     estimated scf accuracy    <          1.5E-09 Ry

     The total energy is the sum of the following terms:

     one-electron contribution =     -45.41165372 Ry
     hartree contribution      =      24.62287369 Ry
     xc contribution           =      -8.71372675 Ry
     ewald contribution        =      -4.67169615 Ry
     one-center paw contrib.   =      -9.49545838 Ry

     convergence has been achieved in   7 iterations

     negative rho (up, down):  1.231E-03 0.000E+00

     Forces acting on atoms (cartesian axes, Ry/au):

     atom    1 type  1   force =    -0.06850124    0.00265630    0.00636008
     atom    2 type  1   force =     0.06802997    0.00266093    0.00691861
     atom    3 type  2   force =     0.00047126   -0.00531723   -0.01327869

     Total force =     0.098121     Total SCF correction =     0.000035

     BFGS Geometry Optimization

     number of scf cycles    =   1
     number of bfgs steps    =   0

     energy   new            =     -43.6696613143 Ry

     new trust radius        =       0.0688471203 bohr
     new conv_thr            =       0.0000000100 Ry


ATOMIC_POSITIONS (angstrom)
H             0.9637507067        0.0114056521        0.0333656092
H            -0.9640000880        0.0114081044        0.0236611690
O             0.0002493813       -0.0028137565       -0.0070267782



     Writing output data file ./H20/H20.save/
     NEW-OLD atomic charge density approx. for the potential

     Check: negative core charge=   -0.000123

     negative rho (up, down):  1.940E-03 0.000E+00

     total cpu time spent up to now is        1.3 secs

     Self-consistent Calculation

     iteration #  1     ecut=    25.00 Ry     beta= 0.70
     Davidson diagonalization with overlap
     ethr =  1.00E-06,  avg # of iterations =  4.0

     negative rho (up, down):  1.399E-03 0.000E+00

     total cpu time spent up to now is        1.4 secs

     total energy              =     -43.67486551 Ry
     Harris-Foulkes estimate   =     -43.67544029 Ry
     estimated scf accuracy    <       0.00159625 Ry

     iteration #  2     ecut=    25.00 Ry     beta= 0.70
     Davidson diagonalization with overlap
     ethr =  2.00E-05,  avg # of iterations =  2.0

     negative rho (up, down):  1.322E-03 0.000E+00

     total cpu time spent up to now is        1.5 secs

     total energy              =     -43.67513014 Ry
     Harris-Foulkes estimate   =     -43.67568734 Ry
     estimated scf accuracy    <       0.00103910 Ry

     iteration #  3     ecut=    25.00 Ry     beta= 0.70
     Davidson diagonalization with overlap
     ethr =  1.30E-05,  avg # of iterations =  2.0

     negative rho (up, down):  1.304E-03 0.000E+00

     total cpu time spent up to now is        1.5 secs

     total energy              =     -43.67538123 Ry
     Harris-Foulkes estimate   =     -43.67538786 Ry
     estimated scf accuracy    <       0.00002910 Ry

     iteration #  4     ecut=    25.00 Ry     beta= 0.70
     Davidson diagonalization with overlap
     ethr =  3.64E-07,  avg # of iterations =  2.0

     negative rho (up, down):  1.305E-03 0.000E+00

     total cpu time spent up to now is        1.6 secs

     total energy              =     -43.67538530 Ry
     Harris-Foulkes estimate   =     -43.67538519 Ry
     estimated scf accuracy    <       0.00000023 Ry

     iteration #  5     ecut=    25.00 Ry     beta= 0.70
     Davidson diagonalization with overlap
     ethr =  2.82E-09,  avg # of iterations =  2.0

     negative rho (up, down):  1.305E-03 0.000E+00

     total cpu time spent up to now is        1.7 secs

     total energy              =     -43.67538537 Ry
     Harris-Foulkes estimate   =     -43.67538537 Ry
     estimated scf accuracy    <       0.00000002 Ry

     iteration #  6     ecut=    25.00 Ry     beta= 0.70
     Davidson diagonalization with overlap
     ethr =  2.21E-10,  avg # of iterations =  2.0

     negative rho (up, down):  1.305E-03 0.000E+00

     total cpu time spent up to now is        1.8 secs

     End of self-consistent calculation

          k = 0.0000 0.0000 0.0000 (  1052 PWs)   bands (ev):

   -24.0757 -14.0013  -6.0269  -6.0173

     highest occupied level (ev):    -6.0173

!    total energy              =     -43.67538538 Ry
     Harris-Foulkes estimate   =     -43.67538537 Ry
     estimated scf accuracy    <          8.2E-10 Ry

     The total energy is the sum of the following terms:

     one-electron contribution =     -46.16384387 Ry
     hartree contribution      =      24.95871034 Ry
     xc contribution           =      -8.77499712 Ry
     ewald contribution        =      -4.20172270 Ry
     one-center paw contrib.   =      -9.49353202 Ry

     convergence has been achieved in   6 iterations

     negative rho (up, down):  1.305E-03 0.000E+00

     Forces acting on atoms (cartesian axes, Ry/au):

     atom    1 type  1   force =    -0.00753695    0.00461593    0.01171057
     atom    2 type  1   force =     0.00819509    0.00460215    0.01163289
     atom    3 type  2   force =    -0.00065814   -0.00921808   -0.02334346

     Total force =     0.032699     Total SCF correction =     0.000010

     number of scf cycles    =   2
     number of bfgs steps    =   1

     energy   old            =     -43.6696613143 Ry
     energy   new            =     -43.6753853759 Ry

     CASE: energy  _new < energy  _old

     new trust radius        =       0.0318663098 bohr
     new conv_thr            =       0.0000000100 Ry


ATOMIC_POSITIONS (angstrom)
H             0.9546184976        0.0145078671        0.0412118789
H            -0.9544794381        0.0145018538        0.0314934635
O            -0.0001390596       -0.0090097209       -0.0227053424



     Writing output data file ./H20/H20.save/
     NEW-OLD atomic charge density approx. for the potential

     Check: negative core charge=   -0.000123

     negative rho (up, down):  1.321E-03 0.000E+00

     total cpu time spent up to now is        1.9 secs

     Self-consistent Calculation

     iteration #  1     ecut=    25.00 Ry     beta= 0.70
     Davidson diagonalization with overlap
     ethr =  1.00E-06,  avg # of iterations =  6.0

     negative rho (up, down):  1.299E-03 0.000E+00

     total cpu time spent up to now is        2.0 secs

     total energy              =     -43.67690403 Ry
     Harris-Foulkes estimate   =     -43.67578278 Ry
     estimated scf accuracy    <       0.00034956 Ry

     iteration #  2     ecut=    25.00 Ry     beta= 0.70
     Davidson diagonalization with overlap
     ethr =  4.37E-06,  avg # of iterations =  2.0

     negative rho (up, down):  1.277E-03 0.000E+00

     total cpu time spent up to now is        2.0 secs

     total energy              =     -43.67694933 Ry
     Harris-Foulkes estimate   =     -43.67697938 Ry
     estimated scf accuracy    <       0.00005370 Ry

     iteration #  3     ecut=    25.00 Ry     beta= 0.70
     Davidson diagonalization with overlap
     ethr =  6.71E-07,  avg # of iterations =  2.0

     negative rho (up, down):  1.281E-03 0.000E+00

     total cpu time spent up to now is        2.1 secs

     total energy              =     -43.67696458 Ry
     Harris-Foulkes estimate   =     -43.67697366 Ry
     estimated scf accuracy    <       0.00001915 Ry

     iteration #  4     ecut=    25.00 Ry     beta= 0.70
     Davidson diagonalization with overlap
     ethr =  2.39E-07,  avg # of iterations =  2.0

     negative rho (up, down):  1.281E-03 0.000E+00

     total cpu time spent up to now is        2.2 secs

     total energy              =     -43.67696879 Ry
     Harris-Foulkes estimate   =     -43.67696879 Ry
     estimated scf accuracy    <       0.00000029 Ry

     iteration #  5     ecut=    25.00 Ry     beta= 0.70
     Davidson diagonalization with overlap
     ethr =  3.56E-09,  avg # of iterations =  2.0

     negative rho (up, down):  1.280E-03 0.000E+00

     total cpu time spent up to now is        2.2 secs

     End of self-consistent calculation

          k = 0.0000 0.0000 0.0000 (  1052 PWs)   bands (ev):

   -24.1706 -14.0871  -6.0781  -6.0512

     highest occupied level (ev):    -6.0512

!    total energy              =     -43.67696884 Ry
     Harris-Foulkes estimate   =     -43.67696884 Ry
     estimated scf accuracy    <          4.4E-09 Ry

     The total energy is the sum of the following terms:

     one-electron contribution =     -46.33814706 Ry
     hartree contribution      =      25.03566719 Ry
     xc contribution           =      -8.78962922 Ry
     ewald contribution        =      -4.09129840 Ry
     one-center paw contrib.   =      -9.49356135 Ry

     convergence has been achieved in   5 iterations

     negative rho (up, down):  1.280E-03 0.000E+00

     Forces acting on atoms (cartesian axes, Ry/au):

     atom    1 type  1   force =     0.00614682    0.00798649    0.01984325
     atom    2 type  1   force =    -0.00843445    0.00804528    0.01979108
     atom    3 type  2   force =     0.00228763   -0.01603177   -0.03963433

     Total force =     0.053442     Total SCF correction =     0.000088

     number of scf cycles    =   3
     number of bfgs steps    =   2

     energy   old            =     -43.6753853759 Ry
     energy   new            =     -43.6769688373 Ry

     CASE: energy  _new < energy  _old


     WARNING: bfgs curvature condition failed, Theta= 0.663
     new trust radius        =       0.0350529408 bohr
     new conv_thr            =       0.0000000100 Ry


ATOMIC_POSITIONS (angstrom)
H             0.9391287713        0.0168058518        0.0472265601
H            -0.9370590694        0.0167540005        0.0374543404
O            -0.0020697020       -0.0135598523       -0.0346809005



     Writing output data file ./H20/H20.save/
     NEW-OLD atomic charge density approx. for the potential

     Check: negative core charge=   -0.000122

     negative rho (up, down):  1.356E-03 0.000E+00

     total cpu time spent up to now is        2.4 secs

     Self-consistent Calculation

     iteration #  1     ecut=    25.00 Ry     beta= 0.70
     Davidson diagonalization with overlap
     ethr =  1.00E-06,  avg # of iterations =  4.0

     negative rho (up, down):  1.307E-03 0.000E+00

     total cpu time spent up to now is        2.5 secs

     total energy              =     -43.67725679 Ry
     Harris-Foulkes estimate   =     -43.67638091 Ry
     estimated scf accuracy    <       0.00047304 Ry

     iteration #  2     ecut=    25.00 Ry     beta= 0.70
     Davidson diagonalization with overlap
     ethr =  5.91E-06,  avg # of iterations =  2.0

     negative rho (up, down):  1.274E-03 0.000E+00

     total cpu time spent up to now is        2.5 secs

     total energy              =     -43.67732430 Ry
     Harris-Foulkes estimate   =     -43.67744071 Ry
     estimated scf accuracy    <       0.00020661 Ry

     iteration #  3     ecut=    25.00 Ry     beta= 0.70
     Davidson diagonalization with overlap
     ethr =  2.58E-06,  avg # of iterations =  2.0

     negative rho (up, down):  1.269E-03 0.000E+00

     total cpu time spent up to now is        2.6 secs

     total energy              =     -43.67737955 Ry
     Harris-Foulkes estimate   =     -43.67738485 Ry
     estimated scf accuracy    <       0.00001495 Ry

     iteration #  4     ecut=    25.00 Ry     beta= 0.70
     Davidson diagonalization with overlap
     ethr =  1.87E-07,  avg # of iterations =  2.0

     negative rho (up, down):  1.268E-03 0.000E+00

     total cpu time spent up to now is        2.7 secs

     total energy              =     -43.67738215 Ry
     Harris-Foulkes estimate   =     -43.67738209 Ry
     estimated scf accuracy    <       0.00000010 Ry

     iteration #  5     ecut=    25.00 Ry     beta= 0.70
     Davidson diagonalization with overlap
     ethr =  1.25E-09,  avg # of iterations =  2.0

     negative rho (up, down):  1.268E-03 0.000E+00

     total cpu time spent up to now is        2.7 secs

     End of self-consistent calculation

          k = 0.0000 0.0000 0.0000 (  1052 PWs)   bands (ev):

   -24.3439 -14.2594  -6.1584  -6.1117

     highest occupied level (ev):    -6.1117

!    total energy              =     -43.67738218 Ry
     Harris-Foulkes estimate   =     -43.67738218 Ry
     estimated scf accuracy    <          6.2E-09 Ry

     The total energy is the sum of the following terms:

     one-electron contribution =     -46.67122832 Ry
     hartree contribution      =      25.18384095 Ry
     xc contribution           =      -8.81744228 Ry
     ewald contribution        =      -3.87931542 Ry
     one-center paw contrib.   =      -9.49323711 Ry

     convergence has been achieved in   5 iterations

     negative rho (up, down):  1.268E-03 0.000E+00

     Forces acting on atoms (cartesian axes, Ry/au):

     atom    1 type  1   force =     0.02946349    0.01089561    0.02766628
     atom    2 type  1   force =    -0.04519239    0.01147856    0.02863846
     atom    3 type  2   force =     0.01572890   -0.02237417   -0.05630473

     Total force =     0.093085     Total SCF correction =     0.000069

     number of scf cycles    =   4
     number of bfgs steps    =   3

     energy   old            =     -43.6769688373 Ry
     energy   new            =     -43.6773821839 Ry

     CASE: energy  _new < energy  _old


     WARNING: info=  9 for Hessian
     uphill step: resetting bfgs history

     new trust radius        =       0.0625957268 bohr
     new conv_thr            =       0.0000000041 Ry


ATOMIC_POSITIONS (angstrom)
H             0.9547201767        0.0225715619        0.0618669242
H            -0.9609738499        0.0228281929        0.0526091584
O             0.0062536732       -0.0253997548       -0.0644760826



     Writing output data file ./H20/H20.save/
     NEW-OLD atomic charge density approx. for the potential

     Check: negative core charge=   -0.000121

     negative rho (up, down):  1.148E-03 0.000E+00

     total cpu time spent up to now is        2.9 secs

     Self-consistent Calculation

     iteration #  1     ecut=    25.00 Ry     beta= 0.70
     Davidson diagonalization with overlap
     ethr =  1.00E-06,  avg # of iterations =  7.0

     negative rho (up, down):  1.050E-03 0.000E+00

     total cpu time spent up to now is        3.0 secs

     total energy              =     -43.68387167 Ry
     Harris-Foulkes estimate   =     -43.68025423 Ry
     estimated scf accuracy    <       0.00224451 Ry

     iteration #  2     ecut=    25.00 Ry     beta= 0.70
     Davidson diagonalization with overlap
     ethr =  2.81E-05,  avg # of iterations =  2.0

     negative rho (up, down):  1.095E-03 0.000E+00

     total cpu time spent up to now is        3.1 secs

     total energy              =     -43.68422303 Ry
     Harris-Foulkes estimate   =     -43.68474685 Ry
     estimated scf accuracy    <       0.00088707 Ry

     iteration #  3     ecut=    25.00 Ry     beta= 0.70
     Davidson diagonalization with overlap
     ethr =  1.11E-05,  avg # of iterations =  2.0

     negative rho (up, down):  1.089E-03 0.000E+00

     total cpu time spent up to now is        3.2 secs

     total energy              =     -43.68447807 Ry
     Harris-Foulkes estimate   =     -43.68451100 Ry
     estimated scf accuracy    <       0.00008456 Ry

     iteration #  4     ecut=    25.00 Ry     beta= 0.70
     Davidson diagonalization with overlap
     ethr =  1.06E-06,  avg # of iterations =  2.0

     negative rho (up, down):  1.090E-03 0.000E+00

     total cpu time spent up to now is        3.3 secs

     total energy              =     -43.68449369 Ry
     Harris-Foulkes estimate   =     -43.68449309 Ry
     estimated scf accuracy    <       0.00000078 Ry

     iteration #  5     ecut=    25.00 Ry     beta= 0.70
     Davidson diagonalization with overlap
     ethr =  9.80E-09,  avg # of iterations =  2.0

     negative rho (up, down):  1.090E-03 0.000E+00

     total cpu time spent up to now is        3.3 secs

     total energy              =     -43.68449379 Ry
     Harris-Foulkes estimate   =     -43.68449377 Ry
     estimated scf accuracy    <       0.00000002 Ry

     iteration #  6     ecut=    25.00 Ry     beta= 0.70
     Davidson diagonalization with overlap
     ethr =  2.12E-10,  avg # of iterations =  3.0

     negative rho (up, down):  1.090E-03 0.000E+00

     total cpu time spent up to now is        3.4 secs

     End of self-consistent calculation

          k = 0.0000 0.0000 0.0000 (  1052 PWs)   bands (ev):

   -24.1181 -13.9139  -6.1513  -6.0376

     highest occupied level (ev):    -6.0376

!    total energy              =     -43.68449380 Ry
     Harris-Foulkes estimate   =     -43.68449380 Ry
     estimated scf accuracy    <          1.7E-09 Ry

     The total energy is the sum of the following terms:

     one-electron contribution =     -46.11778841 Ry
     hartree contribution      =      24.92956448 Ry
     xc contribution           =      -8.77287991 Ry
     ewald contribution        =      -4.22687482 Ry
     one-center paw contrib.   =      -9.49651513 Ry

     convergence has been achieved in   6 iterations

     negative rho (up, down):  1.090E-03 0.000E+00

     Forces acting on atoms (cartesian axes, Ry/au):

     atom    1 type  1   force =     0.00595868    0.01473847    0.03883450
     atom    2 type  1   force =     0.02695159    0.01278203    0.03385896
     atom    3 type  2   force =    -0.03291026   -0.02752050   -0.07269347

     Total force =     0.104508     Total SCF correction =     0.000152

     number of scf cycles    =   5
     number of bfgs steps    =   4

     energy   old            =     -43.6773821839 Ry
     energy   new            =     -43.6844937990 Ry

     CASE: energy  _new < energy  _old

     new trust radius        =       0.0688552994 bohr
     new conv_thr            =       0.0000000100 Ry


ATOMIC_POSITIONS (angstrom)
H             0.9671637461        0.0292491001        0.0790561867
H            -0.9740833056        0.0294084035        0.0693524545
O             0.0069195596       -0.0386575036       -0.0984086412



     Writing output data file ./H20/H20.save/
     NEW-OLD atomic charge density approx. for the potential

     Check: negative core charge=   -0.000120

     negative rho (up, down):  9.965E-04 0.000E+00

     total cpu time spent up to now is        3.6 secs

     Self-consistent Calculation

     iteration #  1     ecut=    25.00 Ry     beta= 0.70
     Davidson diagonalization with overlap
     ethr =  1.00E-06,  avg # of iterations =  7.0

     negative rho (up, down):  9.350E-04 0.000E+00

     total cpu time spent up to now is        3.7 secs

     total energy              =     -43.69131885 Ry
     Harris-Foulkes estimate   =     -43.68534010 Ry
     estimated scf accuracy    <       0.00206453 Ry

     iteration #  2     ecut=    25.00 Ry     beta= 0.70
     Davidson diagonalization with overlap
     ethr =  2.58E-05,  avg # of iterations =  2.0

     negative rho (up, down):  9.812E-04 0.000E+00

     total cpu time spent up to now is        3.7 secs

     total energy              =     -43.69161541 Ry
     Harris-Foulkes estimate   =     -43.69215840 Ry
     estimated scf accuracy    <       0.00093816 Ry

     iteration #  3     ecut=    25.00 Ry     beta= 0.70
     Davidson diagonalization with overlap
     ethr =  1.17E-05,  avg # of iterations =  2.0

     negative rho (up, down):  9.818E-04 0.000E+00

     total cpu time spent up to now is        3.8 secs

     total energy              =     -43.69188159 Ry
     Harris-Foulkes estimate   =     -43.69191037 Ry
     estimated scf accuracy    <       0.00007818 Ry

     iteration #  4     ecut=    25.00 Ry     beta= 0.70
     Davidson diagonalization with overlap
     ethr =  9.77E-07,  avg # of iterations =  2.0

     negative rho (up, down):  9.833E-04 0.000E+00

     total cpu time spent up to now is        3.9 secs

     total energy              =     -43.69189577 Ry
     Harris-Foulkes estimate   =     -43.69189524 Ry
     estimated scf accuracy    <       0.00000075 Ry

     iteration #  5     ecut=    25.00 Ry     beta= 0.70
     Davidson diagonalization with overlap
     ethr =  9.39E-09,  avg # of iterations =  2.0

     negative rho (up, down):  9.837E-04 0.000E+00

     total cpu time spent up to now is        3.9 secs

     total energy              =     -43.69189588 Ry
     Harris-Foulkes estimate   =     -43.69189586 Ry
     estimated scf accuracy    <       0.00000002 Ry

     iteration #  6     ecut=    25.00 Ry     beta= 0.70
     Davidson diagonalization with overlap
     ethr =  1.88E-10,  avg # of iterations =  2.0

     negative rho (up, down):  9.837E-04 0.000E+00

     total cpu time spent up to now is        4.0 secs

     End of self-consistent calculation

          k = 0.0000 0.0000 0.0000 (  1052 PWs)   bands (ev):

   -23.9612 -13.6031  -6.2143  -5.9913

     highest occupied level (ev):    -5.9913

!    total energy              =     -43.69189588 Ry
     Harris-Foulkes estimate   =     -43.69189588 Ry
     estimated scf accuracy    <          7.3E-10 Ry

     The total energy is the sum of the following terms:

     one-electron contribution =     -45.65801344 Ry
     hartree contribution      =      24.71348257 Ry
     xc contribution           =      -8.73694950 Ry
     ewald contribution        =      -4.50965275 Ry
     one-center paw contrib.   =      -9.50076277 Ry

     convergence has been achieved in   6 iterations

     negative rho (up, down):  9.837E-04 0.000E+00

     Forces acting on atoms (cartesian axes, Ry/au):

     atom    1 type  1   force =    -0.02973934    0.01711818    0.04589417
     atom    2 type  1   force =     0.06062205    0.01457860    0.03977069
     atom    3 type  2   force =    -0.03088271   -0.03169678   -0.08566486

     Total force =     0.134350     Total SCF correction =     0.000056

     number of scf cycles    =   6
     number of bfgs steps    =   5

     energy   old            =     -43.6844937990 Ry
     energy   new            =     -43.6918958845 Ry

     CASE: energy  _new < energy  _old

     new trust radius        =       0.1032829491 bohr
     new conv_thr            =       0.0000000100 Ry


ATOMIC_POSITIONS (angstrom)
H             0.9823914486        0.0392210934        0.1047867424
H            -0.9920081383        0.0392528232        0.0944864483
O             0.0096166897       -0.0584739166       -0.1492731907



     Writing output data file ./H20/H20.save/
     NEW-OLD atomic charge density approx. for the potential

     Check: negative core charge=   -0.000121

     negative rho (up, down):  9.107E-04 0.000E+00

     total cpu time spent up to now is        4.2 secs

     Self-consistent Calculation

     iteration #  1     ecut=    25.00 Ry     beta= 0.70
     Davidson diagonalization with overlap
     ethr =  1.00E-06,  avg # of iterations =  7.0

     negative rho (up, down):  8.494E-04 0.000E+00

     total cpu time spent up to now is        4.3 secs

     total energy              =     -43.70035731 Ry
     Harris-Foulkes estimate   =     -43.68856293 Ry
     estimated scf accuracy    <       0.00472158 Ry

     iteration #  2     ecut=    25.00 Ry     beta= 0.70
     Davidson diagonalization with overlap
     ethr =  5.90E-05,  avg # of iterations =  2.0

     negative rho (up, down):  9.243E-04 0.000E+00

     total cpu time spent up to now is        4.4 secs

     total energy              =     -43.70099373 Ry
     Harris-Foulkes estimate   =     -43.70263380 Ry
     estimated scf accuracy    <       0.00294414 Ry

     iteration #  3     ecut=    25.00 Ry     beta= 0.70
     Davidson diagonalization with overlap
     ethr =  3.68E-05,  avg # of iterations =  2.0

     negative rho (up, down):  9.359E-04 0.000E+00

     total cpu time spent up to now is        4.4 secs

     total energy              =     -43.70177292 Ry
     Harris-Foulkes estimate   =     -43.70182143 Ry
     estimated scf accuracy    <       0.00014564 Ry

     iteration #  4     ecut=    25.00 Ry     beta= 0.70
     Davidson diagonalization with overlap
     ethr =  1.82E-06,  avg # of iterations =  2.0

     negative rho (up, down):  9.403E-04 0.000E+00

     total cpu time spent up to now is        4.5 secs

     total energy              =     -43.70179824 Ry
     Harris-Foulkes estimate   =     -43.70179744 Ry
     estimated scf accuracy    <       0.00000209 Ry

     iteration #  5     ecut=    25.00 Ry     beta= 0.70
     Davidson diagonalization with overlap
     ethr =  2.61E-08,  avg # of iterations =  2.0

     negative rho (up, down):  9.408E-04 0.000E+00

     total cpu time spent up to now is        4.6 secs

     total energy              =     -43.70179859 Ry
     Harris-Foulkes estimate   =     -43.70179851 Ry
     estimated scf accuracy    <       0.00000005 Ry

     iteration #  6     ecut=    25.00 Ry     beta= 0.70
     Davidson diagonalization with overlap
     ethr =  6.77E-10,  avg # of iterations =  2.0

     negative rho (up, down):  9.410E-04 0.000E+00

     total cpu time spent up to now is        4.7 secs

     total energy              =     -43.70179861 Ry
     Harris-Foulkes estimate   =     -43.70179861 Ry
     estimated scf accuracy    <       0.00000002 Ry

     iteration #  7     ecut=    25.00 Ry     beta= 0.70
     Davidson diagonalization with overlap
     ethr =  1.90E-10,  avg # of iterations =  2.0

     negative rho (up, down):  9.410E-04 0.000E+00

     total cpu time spent up to now is        4.7 secs

     End of self-consistent calculation

          k = 0.0000 0.0000 0.0000 (  1052 PWs)   bands (ev):

   -23.7442 -13.1065  -6.3846  -5.9372

     highest occupied level (ev):    -5.9372

!    total energy              =     -43.70179861 Ry
     Harris-Foulkes estimate   =     -43.70179861 Ry
     estimated scf accuracy    <          4.1E-10 Ry

     The total energy is the sum of the following terms:

     one-electron contribution =     -44.94505276 Ry
     hartree contribution      =      24.37236728 Ry
     xc contribution           =      -8.68268053 Ry
     ewald contribution        =      -4.93790027 Ry
     one-center paw contrib.   =      -9.50853233 Ry

     convergence has been achieved in   7 iterations

     negative rho (up, down):  9.410E-04 0.000E+00

     Forces acting on atoms (cartesian axes, Ry/au):

     atom    1 type  1   force =    -0.07249689    0.01810860    0.04615963
     atom    2 type  1   force =     0.10688165    0.01422899    0.03717419
     atom    3 type  2   force =    -0.03438476   -0.03233760   -0.08333381

     Total force =     0.172902     Total SCF correction =     0.000030

     number of scf cycles    =   7
     number of bfgs steps    =   6

     energy   old            =     -43.6918958845 Ry
     energy   new            =     -43.7017986109 Ry

     CASE: energy  _new < energy  _old

     new trust radius        =       0.1549244237 bohr
     new conv_thr            =       0.0000000100 Ry


ATOMIC_POSITIONS (angstrom)
H             1.0025614670        0.0555063333        0.1438687040
H            -1.0126006961        0.0546484629        0.1310171139
O             0.0100392290       -0.0901547962       -0.2248858179



     Writing output data file ./H20/H20.save/
     NEW-OLD atomic charge density approx. for the potential

     Check: negative core charge=   -0.000118

     negative rho (up, down):  7.854E-04 0.000E+00

     total cpu time spent up to now is        4.9 secs

     Self-consistent Calculation

     iteration #  1     ecut=    25.00 Ry     beta= 0.70
     Davidson diagonalization with overlap
     ethr =  1.00E-06,  avg # of iterations =  7.0

     negative rho (up, down):  6.248E-04 0.000E+00

     total cpu time spent up to now is        5.0 secs

     total energy              =     -43.70512808 Ry
     Harris-Foulkes estimate   =     -43.68431029 Ry
     estimated scf accuracy    <       0.01087538 Ry

     iteration #  2     ecut=    25.00 Ry     beta= 0.70
     Davidson diagonalization with overlap
     ethr =  1.36E-04,  avg # of iterations =  3.0

     negative rho (up, down):  7.157E-04 0.000E+00

     total cpu time spent up to now is        5.1 secs

     total energy              =     -43.70631543 Ry
     Harris-Foulkes estimate   =     -43.71151625 Ry
     estimated scf accuracy    <       0.00987493 Ry

     iteration #  3     ecut=    25.00 Ry     beta= 0.70
     Davidson diagonalization with overlap
     ethr =  1.23E-04,  avg # of iterations =  2.0

     negative rho (up, down):  7.317E-04 0.000E+00

     total cpu time spent up to now is        5.1 secs

     total energy              =     -43.70867976 Ry
     Harris-Foulkes estimate   =     -43.70877956 Ry
     estimated scf accuracy    <       0.00029390 Ry

     iteration #  4     ecut=    25.00 Ry     beta= 0.70
     Davidson diagonalization with overlap
     ethr =  3.67E-06,  avg # of iterations =  2.0

     negative rho (up, down):  7.328E-04 0.000E+00

     total cpu time spent up to now is        5.2 secs

     total energy              =     -43.70873753 Ry
     Harris-Foulkes estimate   =     -43.70873901 Ry
     estimated scf accuracy    <       0.00000922 Ry

     iteration #  5     ecut=    25.00 Ry     beta= 0.70
     Davidson diagonalization with overlap
     ethr =  1.15E-07,  avg # of iterations =  2.0

     negative rho (up, down):  7.311E-04 0.000E+00

     total cpu time spent up to now is        5.3 secs

     total energy              =     -43.70873910 Ry
     Harris-Foulkes estimate   =     -43.70873910 Ry
     estimated scf accuracy    <       0.00000054 Ry

     iteration #  6     ecut=    25.00 Ry     beta= 0.70
     Davidson diagonalization with overlap
     ethr =  6.78E-09,  avg # of iterations =  3.0

     negative rho (up, down):  7.308E-04 0.000E+00

     total cpu time spent up to now is        5.3 secs

     total energy              =     -43.70873930 Ry
     Harris-Foulkes estimate   =     -43.70873937 Ry
     estimated scf accuracy    <       0.00000016 Ry

     iteration #  7     ecut=    25.00 Ry     beta= 0.70
     Davidson diagonalization with overlap
     ethr =  1.95E-09,  avg # of iterations =  2.0

     negative rho (up, down):  7.307E-04 0.000E+00

     total cpu time spent up to now is        5.4 secs

     End of self-consistent calculation

          k = 0.0000 0.0000 0.0000 (  1052 PWs)   bands (ev):

   -23.4318 -12.3155  -6.7702  -5.8846

     highest occupied level (ev):    -5.8846

!    total energy              =     -43.70873934 Ry
     Harris-Foulkes estimate   =     -43.70873934 Ry
     estimated scf accuracy    <          5.7E-09 Ry

     The total energy is the sum of the following terms:

     one-electron contribution =     -43.82381033 Ry
     hartree contribution      =      23.82466293 Ry
     xc contribution           =      -8.59856215 Ry
     ewald contribution        =      -5.58968341 Ry
     one-center paw contrib.   =      -9.52134637 Ry

     convergence has been achieved in   7 iterations

     negative rho (up, down):  7.307E-04 0.000E+00

     Forces acting on atoms (cartesian axes, Ry/au):

     atom    1 type  1   force =    -0.12998588    0.00958961    0.02191691
     atom    2 type  1   force =     0.15275021    0.00608233    0.01488744
     atom    3 type  2   force =    -0.02276434   -0.01567194   -0.03680436

     Total force =     0.207794     Total SCF correction =     0.000055

     number of scf cycles    =   8
     number of bfgs steps    =   7

     energy   old            =     -43.7017986109 Ry
     energy   new            =     -43.7087393374 Ry

     CASE: energy  _new < energy  _old

     new trust radius        =       0.0170877882 bohr
     new conv_thr            =       0.0000000100 Ry


ATOMIC_POSITIONS (angstrom)
H             0.9980558261        0.0558841217        0.1422877432
H            -1.0037716432        0.0547661978        0.1290677053
O             0.0057158172       -0.0906503195       -0.2213554485



     Writing output data file ./H20/H20.save/
     NEW-OLD atomic charge density approx. for the potential

     Check: negative core charge=   -0.000119

     negative rho (up, down):  7.476E-04 0.000E+00

     total cpu time spent up to now is        5.6 secs

     Self-consistent Calculation

     iteration #  1     ecut=    25.00 Ry     beta= 0.70
     Davidson diagonalization with overlap
     ethr =  1.00E-06,  avg # of iterations =  4.0

     negative rho (up, down):  7.584E-04 0.000E+00

     total cpu time spent up to now is        5.6 secs

     total energy              =     -43.71202067 Ry
     Harris-Foulkes estimate   =     -43.71286183 Ry
     estimated scf accuracy    <       0.00011603 Ry

     iteration #  2     ecut=    25.00 Ry     beta= 0.70
     Davidson diagonalization with overlap
     ethr =  1.45E-06,  avg # of iterations =  2.0

     negative rho (up, down):  7.487E-04 0.000E+00

     total cpu time spent up to now is        5.7 secs

     total energy              =     -43.71204073 Ry
     Harris-Foulkes estimate   =     -43.71209833 Ry
     estimated scf accuracy    <       0.00011657 Ry

     iteration #  3     ecut=    25.00 Ry     beta= 0.70
     Davidson diagonalization with overlap
     ethr =  1.45E-06,  avg # of iterations =  2.0

     negative rho (up, down):  7.492E-04 0.000E+00

     total cpu time spent up to now is        5.8 secs

     total energy              =     -43.71206697 Ry
     Harris-Foulkes estimate   =     -43.71206742 Ry
     estimated scf accuracy    <       0.00000183 Ry

     iteration #  4     ecut=    25.00 Ry     beta= 0.70
     Davidson diagonalization with overlap
     ethr =  2.28E-08,  avg # of iterations =  2.0

     negative rho (up, down):  7.491E-04 0.000E+00

     total cpu time spent up to now is        5.8 secs

     total energy              =     -43.71206742 Ry
     Harris-Foulkes estimate   =     -43.71206740 Ry
     estimated scf accuracy    <       0.00000006 Ry

     iteration #  5     ecut=    25.00 Ry     beta= 0.70
     Davidson diagonalization with overlap
     ethr =  6.89E-10,  avg # of iterations =  2.0

     negative rho (up, down):  7.491E-04 0.000E+00

     total cpu time spent up to now is        5.9 secs

     End of self-consistent calculation

          k = 0.0000 0.0000 0.0000 (  1052 PWs)   bands (ev):

   -23.4872 -12.3916  -6.7694  -5.8992

     highest occupied level (ev):    -5.8992

!    total energy              =     -43.71206742 Ry
     Harris-Foulkes estimate   =     -43.71206742 Ry
     estimated scf accuracy    <          9.3E-10 Ry

     The total energy is the sum of the following terms:

     one-electron contribution =     -43.97129412 Ry
     hartree contribution      =      23.89458363 Ry
     xc contribution           =      -8.60996533 Ry
     ewald contribution        =      -5.50497970 Ry
     one-center paw contrib.   =      -9.52041189 Ry

     convergence has been achieved in   5 iterations

     negative rho (up, down):  7.491E-04 0.000E+00

     Forces acting on atoms (cartesian axes, Ry/au):

     atom    1 type  1   force =    -0.12916834    0.00986276    0.02196932
     atom    2 type  1   force =     0.14023067    0.00813238    0.01925879
     atom    3 type  2   force =    -0.01106233   -0.01799514   -0.04122811

     Total force =     0.198776     Total SCF correction =     0.000060

     number of scf cycles    =   9
     number of bfgs steps    =   8

     energy   old            =     -43.7087393374 Ry
     energy   new            =     -43.7120674219 Ry

     CASE: energy  _new < energy  _old


     WARNING: bfgs curvature condition failed, Theta= 0.890
     new trust radius        =       0.0187965671 bohr
     new conv_thr            =       0.0000000100 Ry


ATOMIC_POSITIONS (angstrom)
H             0.9919896227        0.0576846710        0.1426573688
H            -0.9940962688        0.0567443757        0.1302555934
O             0.0021066460       -0.0944290467       -0.2229129621



     Writing output data file ./H20/H20.save/
     NEW-OLD atomic charge density approx. for the potential

     Check: negative core charge=   -0.000119

     negative rho (up, down):  7.677E-04 0.000E+00

     total cpu time spent up to now is        6.1 secs

     Self-consistent Calculation

     iteration #  1     ecut=    25.00 Ry     beta= 0.70
     Davidson diagonalization with overlap
     ethr =  1.00E-06,  avg # of iterations =  4.0

     negative rho (up, down):  7.630E-04 0.000E+00

     total cpu time spent up to now is        6.1 secs

     total energy              =     -43.71642442 Ry
     Harris-Foulkes estimate   =     -43.71566889 Ry
     estimated scf accuracy    <       0.00005230 Ry

     iteration #  2     ecut=    25.00 Ry     beta= 0.70
     Davidson diagonalization with overlap
     ethr =  6.54E-07,  avg # of iterations =  2.0

     negative rho (up, down):  7.570E-04 0.000E+00

     total cpu time spent up to now is        6.2 secs

     total energy              =     -43.71643014 Ry
     Harris-Foulkes estimate   =     -43.71644114 Ry
     estimated scf accuracy    <       0.00001995 Ry

     iteration #  3     ecut=    25.00 Ry     beta= 0.70
     Davidson diagonalization with overlap
     ethr =  2.49E-07,  avg # of iterations =  2.0

     negative rho (up, down):  7.577E-04 0.000E+00

     total cpu time spent up to now is        6.3 secs

     total energy              =     -43.71643552 Ry
     Harris-Foulkes estimate   =     -43.71643717 Ry
     estimated scf accuracy    <       0.00000398 Ry

     iteration #  4     ecut=    25.00 Ry     beta= 0.70
     Davidson diagonalization with overlap
     ethr =  4.97E-08,  avg # of iterations =  2.0

     negative rho (up, down):  7.571E-04 0.000E+00

     total cpu time spent up to now is        6.3 secs

     total energy              =     -43.71643633 Ry
     Harris-Foulkes estimate   =     -43.71643634 Ry
     estimated scf accuracy    <       0.00000007 Ry

     iteration #  5     ecut=    25.00 Ry     beta= 0.70
     Davidson diagonalization with overlap
     ethr =  9.20E-10,  avg # of iterations =  3.0

     negative rho (up, down):  7.570E-04 0.000E+00

     total cpu time spent up to now is        6.4 secs

     End of self-consistent calculation

          k = 0.0000 0.0000 0.0000 (  1052 PWs)   bands (ev):

   -23.5399 -12.4262  -6.8066  -5.9158

     highest occupied level (ev):    -5.9158

!    total energy              =     -43.71643636 Ry
     Harris-Foulkes estimate   =     -43.71643636 Ry
     estimated scf accuracy    <          5.7E-09 Ry

     The total energy is the sum of the following terms:

     one-electron contribution =     -44.08107761 Ry
     hartree contribution      =      23.94447731 Ry
     xc contribution           =      -8.61873658 Ry
     ewald contribution        =      -5.44089147 Ry
     one-center paw contrib.   =      -9.52020801 Ry

     convergence has been achieved in   5 iterations

     negative rho (up, down):  7.570E-04 0.000E+00

     Forces acting on atoms (cartesian axes, Ry/au):

     atom    1 type  1   force =    -0.12807625    0.00982014    0.02080484
     atom    2 type  1   force =     0.12931842    0.00962199    0.02169003
     atom    3 type  2   force =    -0.00124218   -0.01944213   -0.04249487

     Total force =     0.190799     Total SCF correction =     0.000084

     number of scf cycles    =  10
     number of bfgs steps    =   9

     energy   old            =     -43.7120674219 Ry
     energy   new            =     -43.7164363589 Ry

     CASE: energy  _new < energy  _old

     new trust radius        =       0.0281948506 bohr
     new conv_thr            =       0.0000000100 Ry


ATOMIC_POSITIONS (angstrom)
H             0.9818219181        0.0612669028        0.1441936075
H            -0.9805113906        0.0612147264        0.1345071352
O            -0.0013105276       -0.1024816293       -0.2287007427



     Writing output data file ./H20/H20.save/
     NEW-OLD atomic charge density approx. for the potential

     Check: negative core charge=   -0.000119

     negative rho (up, down):  7.898E-04 0.000E+00

     total cpu time spent up to now is        6.6 secs

     Self-consistent Calculation

     iteration #  1     ecut=    25.00 Ry     beta= 0.70
     Davidson diagonalization with overlap
     ethr =  1.00E-06,  avg # of iterations =  4.0

     negative rho (up, down):  7.703E-04 0.000E+00

     total cpu time spent up to now is        6.6 secs

     total energy              =     -43.72315436 Ry
     Harris-Foulkes estimate   =     -43.72080305 Ry
     estimated scf accuracy    <       0.00009704 Ry

     iteration #  2     ecut=    25.00 Ry     beta= 0.70
     Davidson diagonalization with overlap
     ethr =  1.21E-06,  avg # of iterations =  2.0

     negative rho (up, down):  7.652E-04 0.000E+00

     total cpu time spent up to now is        6.7 secs

     total energy              =     -43.72316177 Ry
     Harris-Foulkes estimate   =     -43.72316262 Ry
     estimated scf accuracy    <       0.00000753 Ry

     iteration #  3     ecut=    25.00 Ry     beta= 0.70
     Davidson diagonalization with overlap
     ethr =  9.41E-08,  avg # of iterations =  2.0

     negative rho (up, down):  7.663E-04 0.000E+00

     total cpu time spent up to now is        6.8 secs

     total energy              =     -43.72316228 Ry
     Harris-Foulkes estimate   =     -43.72316404 Ry
     estimated scf accuracy    <       0.00000337 Ry

     iteration #  4     ecut=    25.00 Ry     beta= 0.70
     Davidson diagonalization with overlap
     ethr =  4.22E-08,  avg # of iterations =  2.0

     negative rho (up, down):  7.653E-04 0.000E+00

     total cpu time spent up to now is        6.8 secs

     total energy              =     -43.72316321 Ry
     Harris-Foulkes estimate   =     -43.72316335 Ry
     estimated scf accuracy    <       0.00000036 Ry

     iteration #  5     ecut=    25.00 Ry     beta= 0.70
     Davidson diagonalization with overlap
     ethr =  4.46E-09,  avg # of iterations =  2.0

     negative rho (up, down):  7.652E-04 0.000E+00

     total cpu time spent up to now is        6.9 secs

     End of self-consistent calculation

          k = 0.0000 0.0000 0.0000 (  1052 PWs)   bands (ev):

   -23.6109 -12.4396  -6.8889  -5.9404

     highest occupied level (ev):    -5.9404

!    total energy              =     -43.72316328 Ry
     Harris-Foulkes estimate   =     -43.72316328 Ry
     estimated scf accuracy    <          2.3E-09 Ry

     The total energy is the sum of the following terms:

     one-electron contribution =     -44.20334014 Ry
     hartree contribution      =      23.99845298 Ry
     xc contribution           =      -8.62887994 Ry
     ewald contribution        =      -5.36890863 Ry
     one-center paw contrib.   =      -9.52048755 Ry

     convergence has been achieved in   5 iterations

     negative rho (up, down):  7.652E-04 0.000E+00

     Forces acting on atoms (cartesian axes, Ry/au):

     atom    1 type  1   force =    -0.12480891    0.00950777    0.01893431
     atom    2 type  1   force =     0.11719438    0.01082159    0.02301959
     atom    3 type  2   force =     0.00761453   -0.02032935   -0.04195390

     Total force =     0.180663     Total SCF correction =     0.000049

     number of scf cycles    =  11
     number of bfgs steps    =  10

     energy   old            =     -43.7164363589 Ry
     energy   new            =     -43.7231632799 Ry

     CASE: energy  _new < energy  _old

     new trust radius        =       0.0422922759 bohr
     new conv_thr            =       0.0000000100 Ry


ATOMIC_POSITIONS (angstrom)
H             0.9655979042        0.0671220712        0.1467009524
H            -0.9611080347        0.0690713767        0.1424224421
O            -0.0044898695       -0.1161934478       -0.2391233945



     Writing output data file ./H20/H20.save/
     NEW-OLD atomic charge density approx. for the potential

     Check: negative core charge=   -0.000119

     negative rho (up, down):  8.283E-04 0.000E+00

     total cpu time spent up to now is        7.1 secs

     Self-consistent Calculation

     iteration #  1     ecut=    25.00 Ry     beta= 0.70
     Davidson diagonalization with overlap
     ethr =  1.00E-06,  avg # of iterations =  5.0

     negative rho (up, down):  7.886E-04 0.000E+00

     total cpu time spent up to now is        7.1 secs

     total energy              =     -43.73287873 Ry
     Harris-Foulkes estimate   =     -43.72843602 Ry
     estimated scf accuracy    <       0.00022280 Ry

     iteration #  2     ecut=    25.00 Ry     beta= 0.70
     Davidson diagonalization with overlap
     ethr =  2.78E-06,  avg # of iterations =  1.0

     negative rho (up, down):  7.859E-04 0.000E+00

     total cpu time spent up to now is        7.2 secs

     total energy              =     -43.73289029 Ry
     Harris-Foulkes estimate   =     -43.73288743 Ry
     estimated scf accuracy    <       0.00001283 Ry

     iteration #  3     ecut=    25.00 Ry     beta= 0.70
     Davidson diagonalization with overlap
     ethr =  1.60E-07,  avg # of iterations =  2.0

     negative rho (up, down):  7.848E-04 0.000E+00

     total cpu time spent up to now is        7.3 secs

     total energy              =     -43.73289110 Ry
     Harris-Foulkes estimate   =     -43.73289123 Ry
     estimated scf accuracy    <       0.00000046 Ry

     iteration #  4     ecut=    25.00 Ry     beta= 0.70
     Davidson diagonalization with overlap
     ethr =  5.75E-09,  avg # of iterations =  2.0

     negative rho (up, down):  7.851E-04 0.000E+00

     total cpu time spent up to now is        7.3 secs

     total energy              =     -43.73289117 Ry
     Harris-Foulkes estimate   =     -43.73289134 Ry
     estimated scf accuracy    <       0.00000033 Ry

     iteration #  5     ecut=    25.00 Ry     beta= 0.70
     Davidson diagonalization with overlap
     ethr =  4.13E-09,  avg # of iterations =  2.0

     negative rho (up, down):  7.848E-04 0.000E+00

     total cpu time spent up to now is        7.4 secs

     End of self-consistent calculation

          k = 0.0000 0.0000 0.0000 (  1052 PWs)   bands (ev):

   -23.7073 -12.4259  -7.0287  -5.9739

     highest occupied level (ev):    -5.9739

!    total energy              =     -43.73289124 Ry
     Harris-Foulkes estimate   =     -43.73289124 Ry
     estimated scf accuracy    <          6.8E-09 Ry

     The total energy is the sum of the following terms:

     one-electron contribution =     -44.35207024 Ry
     hartree contribution      =      24.06260650 Ry
     xc contribution           =      -8.64147643 Ry
     ewald contribution        =      -5.28067052 Ry
     one-center paw contrib.   =      -9.52128056 Ry

     convergence has been achieved in   5 iterations

     negative rho (up, down):  7.848E-04 0.000E+00

     Forces acting on atoms (cartesian axes, Ry/au):

     atom    1 type  1   force =    -0.11787780    0.00908835    0.01634375
     atom    2 type  1   force =     0.10334404    0.01190563    0.02299569
     atom    3 type  2   force =     0.01453377   -0.02099398   -0.03933944

     Total force =     0.166718     Total SCF correction =     0.000224

     number of scf cycles    =  12
     number of bfgs steps    =  11

     energy   old            =     -43.7231632799 Ry
     energy   new            =     -43.7328912414 Ry

     CASE: energy  _new < energy  _old

     new trust radius        =       0.0634384138 bohr
     new conv_thr            =       0.0000000100 Ry


ATOMIC_POSITIONS (angstrom)
H             0.9404499153        0.0763176529        0.1501126317
H            -0.9329199180        0.0821070066        0.1551683535
O            -0.0075299973       -0.1384246595       -0.2552809851



     Writing output data file ./H20/H20.save/
     NEW-OLD atomic charge density approx. for the potential

     Check: negative core charge=   -0.000120

     negative rho (up, down):  9.251E-04 0.000E+00

     total cpu time spent up to now is        7.6 secs

     Self-consistent Calculation

     iteration #  1     ecut=    25.00 Ry     beta= 0.70
     Davidson diagonalization with overlap
     ethr =  1.00E-06,  avg # of iterations =  5.0

     negative rho (up, down):  8.349E-04 0.000E+00

     total cpu time spent up to now is        7.6 secs

     total energy              =     -43.74618358 Ry
     Harris-Foulkes estimate   =     -43.73853350 Ry
     estimated scf accuracy    <       0.00051104 Ry

     iteration #  2     ecut=    25.00 Ry     beta= 0.70
     Davidson diagonalization with overlap
     ethr =  6.39E-06,  avg # of iterations =  1.0

     negative rho (up, down):  8.354E-04 0.000E+00

     total cpu time spent up to now is        7.7 secs

     total energy              =     -43.74620502 Ry
     Harris-Foulkes estimate   =     -43.74620048 Ry
     estimated scf accuracy    <       0.00003064 Ry

     iteration #  3     ecut=    25.00 Ry     beta= 0.70
     Davidson diagonalization with overlap
     ethr =  3.83E-07,  avg # of iterations =  2.0

     negative rho (up, down):  8.339E-04 0.000E+00

     total cpu time spent up to now is        7.8 secs

     total energy              =     -43.74620674 Ry
     Harris-Foulkes estimate   =     -43.74620778 Ry
     estimated scf accuracy    <       0.00000219 Ry

     iteration #  4     ecut=    25.00 Ry     beta= 0.70
     Davidson diagonalization with overlap
     ethr =  2.73E-08,  avg # of iterations =  2.0

     negative rho (up, down):  8.343E-04 0.000E+00

     total cpu time spent up to now is        7.8 secs

     total energy              =     -43.74620735 Ry
     Harris-Foulkes estimate   =     -43.74620750 Ry
     estimated scf accuracy    <       0.00000044 Ry

     iteration #  5     ecut=    25.00 Ry     beta= 0.70
     Davidson diagonalization with overlap
     ethr =  5.46E-09,  avg # of iterations =  2.0

     negative rho (up, down):  8.342E-04 0.000E+00

     total cpu time spent up to now is        7.9 secs

     total energy              =     -43.74620744 Ry
     Harris-Foulkes estimate   =     -43.74620744 Ry
     estimated scf accuracy    <       0.00000001 Ry

     iteration #  6     ecut=    25.00 Ry     beta= 0.70
     Davidson diagonalization with overlap
     ethr =  1.42E-10,  avg # of iterations =  3.0

     negative rho (up, down):  8.341E-04 0.000E+00

     total cpu time spent up to now is        8.0 secs

     End of self-consistent calculation

          k = 0.0000 0.0000 0.0000 (  1052 PWs)   bands (ev):

   -23.8371 -12.3606  -7.2556  -6.0192

     highest occupied level (ev):    -6.0192

!    total energy              =     -43.74620744 Ry
     Harris-Foulkes estimate   =     -43.74620744 Ry
     estimated scf accuracy    <          8.7E-10 Ry

     The total energy is the sum of the following terms:

     one-electron contribution =     -44.53037995 Ry
     hartree contribution      =      24.13840258 Ry
     xc contribution           =      -8.65695525 Ry
     ewald contribution        =      -5.17451736 Ry
     one-center paw contrib.   =      -9.52275746 Ry

     convergence has been achieved in   6 iterations

     negative rho (up, down):  8.341E-04 0.000E+00

     Forces acting on atoms (cartesian axes, Ry/au):

     atom    1 type  1   force =    -0.10603356    0.00731181    0.01204872
     atom    2 type  1   force =     0.08726400    0.01148972    0.02014376
     atom    3 type  2   force =     0.01876956   -0.01880154   -0.03219248

     Total force =     0.146071     Total SCF correction =     0.000082

     number of scf cycles    =  13
     number of bfgs steps    =  12

     energy   old            =     -43.7328912414 Ry
     energy   new            =     -43.7462074425 Ry

     CASE: energy  _new < energy  _old

     new trust radius        =       0.0951576208 bohr
     new conv_thr            =       0.0000000100 Ry


ATOMIC_POSITIONS (angstrom)
H             0.9004093371        0.0891955995        0.1524737113
H            -0.8903929488        0.1021315766        0.1732272598
O            -0.0100163884       -0.1713271761       -0.2757009710



     Writing output data file ./H20/H20.save/
     NEW-OLD atomic charge density approx. for the potential

     Check: negative core charge=   -0.000121

     negative rho (up, down):  1.188E-03 0.000E+00

     total cpu time spent up to now is        8.1 secs

     Self-consistent Calculation

     iteration #  1     ecut=    25.00 Ry     beta= 0.70
     Davidson diagonalization with overlap
     ethr =  1.00E-06,  avg # of iterations =  6.0

     negative rho (up, down):  9.081E-04 0.000E+00

     total cpu time spent up to now is        8.2 secs

     total energy              =     -43.76256206 Ry
     Harris-Foulkes estimate   =     -43.75118509 Ry
     estimated scf accuracy    <       0.00105332 Ry

     iteration #  2     ecut=    25.00 Ry     beta= 0.70
     Davidson diagonalization with overlap
     ethr =  1.32E-05,  avg # of iterations =  1.0

     negative rho (up, down):  8.932E-04 0.000E+00

     total cpu time spent up to now is        8.3 secs

     total energy              =     -43.76260547 Ry
     Harris-Foulkes estimate   =     -43.76260628 Ry
     estimated scf accuracy    <       0.00007339 Ry

     iteration #  3     ecut=    25.00 Ry     beta= 0.70
     Davidson diagonalization with overlap
     ethr =  9.17E-07,  avg # of iterations =  2.0

     negative rho (up, down):  8.962E-04 0.000E+00

     total cpu time spent up to now is        8.3 secs

     total energy              =     -43.76261191 Ry
     Harris-Foulkes estimate   =     -43.76261611 Ry
     estimated scf accuracy    <       0.00000787 Ry

     iteration #  4     ecut=    25.00 Ry     beta= 0.70
     Davidson diagonalization with overlap
     ethr =  9.84E-08,  avg # of iterations =  2.0

     negative rho (up, down):  8.937E-04 0.000E+00

     total cpu time spent up to now is        8.4 secs

     total energy              =     -43.76261391 Ry
     Harris-Foulkes estimate   =     -43.76261500 Ry
     estimated scf accuracy    <       0.00000217 Ry

     iteration #  5     ecut=    25.00 Ry     beta= 0.70
     Davidson diagonalization with overlap
     ethr =  2.71E-08,  avg # of iterations =  2.0

     negative rho (up, down):  8.938E-04 0.000E+00

     total cpu time spent up to now is        8.5 secs

     total energy              =     -43.76261445 Ry
     Harris-Foulkes estimate   =     -43.76261456 Ry
     estimated scf accuracy    <       0.00000024 Ry

     iteration #  6     ecut=    25.00 Ry     beta= 0.70
     Davidson diagonalization with overlap
     ethr =  3.03E-09,  avg # of iterations =  2.0

     negative rho (up, down):  8.938E-04 0.000E+00

     total cpu time spent up to now is        8.5 secs

     End of self-consistent calculation

          k = 0.0000 0.0000 0.0000 (  1052 PWs)   bands (ev):

   -24.0274 -12.2323  -7.5959  -6.0804

     highest occupied level (ev):    -6.0804

!    total energy              =     -43.76261449 Ry
     Harris-Foulkes estimate   =     -43.76261449 Ry
     estimated scf accuracy    <          2.3E-09 Ry

     The total energy is the sum of the following terms:

     one-electron contribution =     -44.79460829 Ry
     hartree contribution      =      24.25261627 Ry
     xc contribution           =      -8.67921629 Ry
     ewald contribution        =      -5.01674246 Ry
     one-center paw contrib.   =      -9.52466372 Ry

     convergence has been achieved in   6 iterations

     negative rho (up, down):  8.938E-04 0.000E+00

     Forces acting on atoms (cartesian axes, Ry/au):

     atom    1 type  1   force =    -0.08265407    0.00498212    0.00653884
     atom    2 type  1   force =     0.06710660    0.00899509    0.01269501
     atom    3 type  2   force =     0.01554747   -0.01397721   -0.01923385

     Total force =     0.111587     Total SCF correction =     0.000038

     number of scf cycles    =  14
     number of bfgs steps    =  13

     energy   old            =     -43.7462074425 Ry
     energy   new            =     -43.7626144944 Ry

     CASE: energy  _new < energy  _old

     new trust radius        =       0.1427364311 bohr
     new conv_thr            =       0.0000000100 Ry


ATOMIC_POSITIONS (angstrom)
H             0.8371651691        0.1069534606        0.1509471214
H            -0.8248913695        0.1318776948        0.1962473692
O            -0.0122737996       -0.2188311554       -0.2971944906



     Writing output data file ./H20/H20.save/
     NEW-OLD atomic charge density approx. for the potential

     Check: negative core charge=   -0.000121

     negative rho (up, down):  1.949E-03 0.000E+00

     total cpu time spent up to now is        8.7 secs

     Self-consistent Calculation

     iteration #  1     ecut=    25.00 Ry     beta= 0.70
     Davidson diagonalization with overlap
     ethr =  1.00E-06,  avg # of iterations =  6.0

     negative rho (up, down):  9.274E-04 0.000E+00

     total cpu time spent up to now is        8.8 secs

     total energy              =     -43.77831516 Ry
     Harris-Foulkes estimate   =     -43.76272983 Ry
     estimated scf accuracy    <       0.00223534 Ry

     iteration #  2     ecut=    25.00 Ry     beta= 0.70
     Davidson diagonalization with overlap
     ethr =  2.79E-05,  avg # of iterations =  2.0

     negative rho (up, down):  8.602E-04 0.000E+00

     total cpu time spent up to now is        8.8 secs

     total energy              =     -43.77837234 Ry
     Harris-Foulkes estimate   =     -43.77858778 Ry
     estimated scf accuracy    <       0.00043508 Ry

     iteration #  3     ecut=    25.00 Ry     beta= 0.70
     Davidson diagonalization with overlap
     ethr =  5.44E-06,  avg # of iterations =  2.0

     negative rho (up, down):  8.697E-04 0.000E+00

     total cpu time spent up to now is        8.9 secs

     total energy              =     -43.77846617 Ry
     Harris-Foulkes estimate   =     -43.77858029 Ry
     estimated scf accuracy    <       0.00024142 Ry

     iteration #  4     ecut=    25.00 Ry     beta= 0.70
     Davidson diagonalization with overlap
     ethr =  3.02E-06,  avg # of iterations =  2.0

     negative rho (up, down):  8.687E-04 0.000E+00

     total cpu time spent up to now is        9.0 secs

     total energy              =     -43.77851513 Ry
     Harris-Foulkes estimate   =     -43.77851493 Ry
     estimated scf accuracy    <       0.00000071 Ry

     iteration #  5     ecut=    25.00 Ry     beta= 0.70
     Davidson diagonalization with overlap
     ethr =  8.89E-09,  avg # of iterations =  3.0

     negative rho (up, down):  8.682E-04 0.000E+00

     total cpu time spent up to now is        9.1 secs

     total energy              =     -43.77851571 Ry
     Harris-Foulkes estimate   =     -43.77851574 Ry
     estimated scf accuracy    <       0.00000012 Ry

     iteration #  6     ecut=    25.00 Ry     beta= 0.70
     Davidson diagonalization with overlap
     ethr =  1.48E-09,  avg # of iterations =  1.0

     negative rho (up, down):  8.679E-04 0.000E+00

     total cpu time spent up to now is        9.1 secs

     End of self-consistent calculation

          k = 0.0000 0.0000 0.0000 (  1052 PWs)   bands (ev):

   -24.3253 -11.9997  -8.0991  -6.1653

     highest occupied level (ev):    -6.1653

!    total energy              =     -43.77851572 Ry
     Harris-Foulkes estimate   =     -43.77851572 Ry
     estimated scf accuracy    <          9.1E-09 Ry

     The total energy is the sum of the following terms:

     one-electron contribution =     -45.21054263 Ry
     hartree contribution      =      24.43591604 Ry
     xc contribution           =      -8.71282122 Ry
     ewald contribution        =      -4.76427599 Ry
     one-center paw contrib.   =      -9.52679192 Ry

     convergence has been achieved in   6 iterations

     negative rho (up, down):  8.679E-04 0.000E+00

     Forces acting on atoms (cartesian axes, Ry/au):

     atom    1 type  1   force =    -0.03762565    0.00386838    0.00444154
     atom    2 type  1   force =     0.03724576    0.00316847    0.00251889
     atom    3 type  2   force =     0.00037989   -0.00703685   -0.00696044

     Total force =     0.054333     Total SCF correction =     0.000088

     number of scf cycles    =  15
     number of bfgs steps    =  14

     energy   old            =     -43.7626144944 Ry
     energy   new            =     -43.7785157180 Ry

     CASE: energy  _new < energy  _old

     new trust radius        =       0.1378911713 bohr
     new conv_thr            =       0.0000000100 Ry


ATOMIC_POSITIONS (angstrom)
H             0.7766025506        0.1253851686        0.1499177713
H            -0.7602770931        0.1598219938        0.2154454607
O            -0.0163254575       -0.2652071624       -0.3153632320



     Writing output data file ./H20/H20.save/
     NEW-OLD atomic charge density approx. for the potential

     Check: negative core charge=   -0.000121

     negative rho (up, down):  1.733E-03 0.000E+00

     total cpu time spent up to now is        9.3 secs

     Self-consistent Calculation

     iteration #  1     ecut=    25.00 Ry     beta= 0.70
     Davidson diagonalization with overlap
     ethr =  1.00E-06,  avg # of iterations =  6.0

     negative rho (up, down):  9.152E-04 0.000E+00

     total cpu time spent up to now is        9.4 secs

     total energy              =     -43.78308088 Ry
     Harris-Foulkes estimate   =     -43.76775265 Ry
     estimated scf accuracy    <       0.00191426 Ry

     iteration #  2     ecut=    25.00 Ry     beta= 0.70
     Davidson diagonalization with overlap
     ethr =  2.39E-05,  avg # of iterations =  2.0

     negative rho (up, down):  8.664E-04 0.000E+00

     total cpu time spent up to now is        9.4 secs

     total energy              =     -43.78314499 Ry
     Harris-Foulkes estimate   =     -43.78326852 Ry
     estimated scf accuracy    <       0.00028798 Ry

     iteration #  3     ecut=    25.00 Ry     beta= 0.70
     Davidson diagonalization with overlap
     ethr =  3.60E-06,  avg # of iterations =  2.0

     negative rho (up, down):  8.762E-04 0.000E+00

     total cpu time spent up to now is        9.5 secs

     total energy              =     -43.78319360 Ry
     Harris-Foulkes estimate   =     -43.78327789 Ry
     estimated scf accuracy    <       0.00017248 Ry

     iteration #  4     ecut=    25.00 Ry     beta= 0.70
     Davidson diagonalization with overlap
     ethr =  2.16E-06,  avg # of iterations =  2.0

     negative rho (up, down):  8.741E-04 0.000E+00

     total cpu time spent up to now is        9.6 secs

     total energy              =     -43.78323076 Ry
     Harris-Foulkes estimate   =     -43.78323078 Ry
     estimated scf accuracy    <       0.00000101 Ry

     iteration #  5     ecut=    25.00 Ry     beta= 0.70
     Davidson diagonalization with overlap
     ethr =  1.26E-08,  avg # of iterations =  2.0

     negative rho (up, down):  8.736E-04 0.000E+00

     total cpu time spent up to now is        9.7 secs

     total energy              =     -43.78323123 Ry
     Harris-Foulkes estimate   =     -43.78323124 Ry
     estimated scf accuracy    <       0.00000007 Ry

     iteration #  6     ecut=    25.00 Ry     beta= 0.70
     Davidson diagonalization with overlap
     ethr =  8.23E-10,  avg # of iterations =  2.0

     negative rho (up, down):  8.735E-04 0.000E+00

     total cpu time spent up to now is        9.7 secs

     End of self-consistent calculation

          k = 0.0000 0.0000 0.0000 (  1052 PWs)   bands (ev):

   -24.5751 -11.6274  -8.6123  -6.2305

     highest occupied level (ev):    -6.2305

!    total energy              =     -43.78323124 Ry
     Harris-Foulkes estimate   =     -43.78323124 Ry
     estimated scf accuracy    <          5.4E-09 Ry

     The total energy is the sum of the following terms:

     one-electron contribution =     -45.47375436 Ry
     hartree contribution      =      24.54933721 Ry
     xc contribution           =      -8.73297590 Ry
     ewald contribution        =      -4.59663616 Ry
     one-center paw contrib.   =      -9.52920202 Ry

     convergence has been achieved in   6 iterations

     negative rho (up, down):  8.735E-04 0.000E+00

     Forces acting on atoms (cartesian axes, Ry/au):

     atom    1 type  1   force =     0.00341964    0.00041512   -0.00083067
     atom    2 type  1   force =     0.00661948   -0.00572590   -0.00861967
     atom    3 type  2   force =    -0.01003912    0.00531078    0.00945034

     Total force =     0.019539     Total SCF correction =     0.000056

     number of scf cycles    =  16
     number of bfgs steps    =  15

     energy   old            =     -43.7785157180 Ry
     energy   new            =     -43.7832312367 Ry

     CASE: energy  _new < energy  _old

     new trust radius        =       0.0190580841 bohr
     new conv_thr            =       0.0000000100 Ry


ATOMIC_POSITIONS (angstrom)
H             0.7786657010        0.1237775459        0.1474427805
H            -0.7622576138        0.1554328443        0.2098123560
O            -0.0164080872       -0.2592103902       -0.3072551365



     Writing output data file ./H20/H20.save/
     NEW-OLD atomic charge density approx. for the potential

     Check: negative core charge=   -0.000120

     negative rho (up, down):  8.814E-04 0.000E+00

     total cpu time spent up to now is        9.9 secs

     Self-consistent Calculation

     iteration #  1     ecut=    25.00 Ry     beta= 0.70
     Davidson diagonalization with overlap
     ethr =  1.00E-06,  avg # of iterations =  4.0

     negative rho (up, down):  8.916E-04 0.000E+00

     total cpu time spent up to now is       10.0 secs

     total energy              =     -43.78323278 Ry
     Harris-Foulkes estimate   =     -43.78621361 Ry
     estimated scf accuracy    <       0.00015741 Ry

     iteration #  2     ecut=    25.00 Ry     beta= 0.70
     Davidson diagonalization with overlap
     ethr =  1.97E-06,  avg # of iterations =  2.0

     negative rho (up, down):  8.784E-04 0.000E+00

     total cpu time spent up to now is       10.1 secs

     total energy              =     -43.78326057 Ry
     Harris-Foulkes estimate   =     -43.78332373 Ry
     estimated scf accuracy    <       0.00012171 Ry

     iteration #  3     ecut=    25.00 Ry     beta= 0.70
     Davidson diagonalization with overlap
     ethr =  1.52E-06,  avg # of iterations =  2.0

     negative rho (up, down):  8.772E-04 0.000E+00

     total cpu time spent up to now is       10.1 secs

     total energy              =     -43.78328931 Ry
     Harris-Foulkes estimate   =     -43.78328951 Ry
     estimated scf accuracy    <       0.00000238 Ry

     iteration #  4     ecut=    25.00 Ry     beta= 0.70
     Davidson diagonalization with overlap
     ethr =  2.97E-08,  avg # of iterations =  2.0

     negative rho (up, down):  8.768E-04 0.000E+00

     total cpu time spent up to now is       10.2 secs

     total energy              =     -43.78328966 Ry
     Harris-Foulkes estimate   =     -43.78328965 Ry
     estimated scf accuracy    <       0.00000003 Ry

     iteration #  5     ecut=    25.00 Ry     beta= 0.70
     Davidson diagonalization with overlap
     ethr =  4.15E-10,  avg # of iterations =  2.0

     negative rho (up, down):  8.768E-04 0.000E+00

     total cpu time spent up to now is       10.3 secs

     End of self-consistent calculation

          k = 0.0000 0.0000 0.0000 (  1052 PWs)   bands (ev):

   -24.6359 -11.7676  -8.5494  -6.2427

     highest occupied level (ev):    -6.2427

!    total energy              =     -43.78328967 Ry
     Harris-Foulkes estimate   =     -43.78328967 Ry
     estimated scf accuracy    <          2.6E-09 Ry

     The total energy is the sum of the following terms:

     one-electron contribution =     -45.64023693 Ry
     hartree contribution      =      24.62899574 Ry
     xc contribution           =      -8.74649947 Ry
     ewald contribution        =      -4.49754880 Ry
     one-center paw contrib.   =      -9.52800021 Ry

     convergence has been achieved in   5 iterations

     negative rho (up, down):  8.768E-04 0.000E+00

     Forces acting on atoms (cartesian axes, Ry/au):

     atom    1 type  1   force =     0.00760862    0.00524860    0.00511969
     atom    2 type  1   force =    -0.00111920    0.00178063    0.00078120
     atom    3 type  2   force =    -0.00648942   -0.00702923   -0.00590089

     Total force =     0.015589     Total SCF correction =     0.000114

     number of scf cycles    =  17
     number of bfgs steps    =  16

     energy   old            =     -43.7832312367 Ry
     energy   new            =     -43.7832896660 Ry

     CASE: energy  _new < energy  _old

     new trust radius        =       0.0078019821 bohr
     new conv_thr            =       0.0000000006 Ry


ATOMIC_POSITIONS (angstrom)
H             0.7811873844        0.1257892058        0.1500195870
H            -0.7634136042        0.1554628342        0.2098195598
O            -0.0177737803       -0.2612520400       -0.3098391468



     Writing output data file ./H20/H20.save/
     NEW-OLD atomic charge density approx. for the potential

     Check: negative core charge=   -0.000120

     negative rho (up, down):  8.697E-04 0.000E+00

     total cpu time spent up to now is       10.4 secs

     Self-consistent Calculation

     iteration #  1     ecut=    25.00 Ry     beta= 0.70
     Davidson diagonalization with overlap
     ethr =  1.00E-06,  avg # of iterations =  3.0

     negative rho (up, down):  8.637E-04 0.000E+00

     total cpu time spent up to now is       10.5 secs

     total energy              =     -43.78335202 Ry
     Harris-Foulkes estimate   =     -43.78235237 Ry
     estimated scf accuracy    <       0.00004022 Ry

     iteration #  2     ecut=    25.00 Ry     beta= 0.70
     Davidson diagonalization with overlap
     ethr =  5.03E-07,  avg # of iterations =  2.0

     negative rho (up, down):  8.705E-04 0.000E+00

     total cpu time spent up to now is       10.6 secs

     total energy              =     -43.78335991 Ry
     Harris-Foulkes estimate   =     -43.78337714 Ry
     estimated scf accuracy    <       0.00003304 Ry

     iteration #  3     ecut=    25.00 Ry     beta= 0.70
     Davidson diagonalization with overlap
     ethr =  4.13E-07,  avg # of iterations =  2.0

     negative rho (up, down):  8.715E-04 0.000E+00

     total cpu time spent up to now is       10.7 secs

     total energy              =     -43.78336754 Ry
     Harris-Foulkes estimate   =     -43.78336757 Ry
     estimated scf accuracy    <       0.00000045 Ry

     iteration #  4     ecut=    25.00 Ry     beta= 0.70
     Davidson diagonalization with overlap
     ethr =  5.66E-09,  avg # of iterations =  2.0

     negative rho (up, down):  8.719E-04 0.000E+00

     total cpu time spent up to now is       10.8 secs

     total energy              =     -43.78336762 Ry
     Harris-Foulkes estimate   =     -43.78336761 Ry
     estimated scf accuracy    <          8.9E-09 Ry

     iteration #  5     ecut=    25.00 Ry     beta= 0.70
     Davidson diagonalization with overlap
     ethr =  1.12E-10,  avg # of iterations =  2.0

     negative rho (up, down):  8.719E-04 0.000E+00

     total cpu time spent up to now is       10.8 secs

     total energy              =     -43.78336762 Ry
     Harris-Foulkes estimate   =     -43.78336762 Ry
     estimated scf accuracy    <          5.9E-10 Ry

     iteration #  6     ecut=    25.00 Ry     beta= 0.70
     Davidson diagonalization with overlap
     ethr =  7.37E-12,  avg # of iterations =  2.0

     negative rho (up, down):  8.719E-04 0.000E+00

     total cpu time spent up to now is       10.9 secs

     End of self-consistent calculation

          k = 0.0000 0.0000 0.0000 (  1052 PWs)   bands (ev):

   -24.5934 -11.7134  -8.5589  -6.2336

     highest occupied level (ev):    -6.2336

!    total energy              =     -43.78336762 Ry
     Harris-Foulkes estimate   =     -43.78336762 Ry
[...]

     iteration #  5     ecut=    25.00 Ry     beta= 0.70
     Davidson diagonalization with overlap
     ethr =  1.36E-11,  avg # of iterations =  2.0

     negative rho (up, down):  8.756E-04 0.000E+00

     total cpu time spent up to now is       19.3 secs

     total energy              =     -43.78345187 Ry
     Harris-Foulkes estimate   =     -43.78345187 Ry
     estimated scf accuracy    <          1.4E-10 Ry

     iteration #  6     ecut=    25.00 Ry     beta= 0.70
     Davidson diagonalization with overlap
     ethr =  1.72E-12,  avg # of iterations =  2.0

     negative rho (up, down):  8.756E-04 0.000E+00

     total cpu time spent up to now is       19.4 secs

     End of self-consistent calculation

          k = 0.0000 0.0000 0.0000 (  1052 PWs)   bands (ev):

   -24.6011 -11.7174  -8.5617  -6.2357

     highest occupied level (ev):    -6.2357

!    total energy              =     -43.78345187 Ry
     Harris-Foulkes estimate   =     -43.78345187 Ry
     estimated scf accuracy    <          2.3E-11 Ry

     The total energy is the sum of the following terms:

     one-electron contribution =     -45.55872571 Ry
     hartree contribution      =      24.59033698 Ry
     xc contribution           =      -8.73992662 Ry
     ewald contribution        =      -4.54666289 Ry
     one-center paw contrib.   =      -9.52847363 Ry

     convergence has been achieved in   6 iterations

     negative rho (up, down):  8.756E-04 0.000E+00

     Forces acting on atoms (cartesian axes, Ry/au):

     atom    1 type  1   force =    -0.00015271    0.00031306    0.00024346
     atom    2 type  1   force =    -0.00072054    0.00076637    0.00068212
     atom    3 type  2   force =     0.00087325   -0.00107944   -0.00092558

     Total force =     0.002130     Total SCF correction =     0.000003

     number of scf cycles    =  33
     number of bfgs steps    =  27

     energy   old            =     -43.7834487927 Ry
     energy   new            =     -43.7834518700 Ry

     CASE: energy  _new < energy  _old

     new trust radius        =       0.0010676359 bohr
     new conv_thr            =            1.0E-10 Ry


ATOMIC_POSITIONS (angstrom)
H             0.7779714064        0.1497853401        0.1419879687
H            -0.7661297713        0.1710184481        0.1817150563
O            -0.0118416351       -0.3008037882       -0.2737030249



     Writing output data file ./H20/H20.save/
     NEW-OLD atomic charge density approx. for the potential

     Check: negative core charge=   -0.000121

     negative rho (up, down):  8.750E-04 0.000E+00

     total cpu time spent up to now is       19.6 secs

     Self-consistent Calculation

     iteration #  1     ecut=    25.00 Ry     beta= 0.70
     Davidson diagonalization with overlap
     ethr =  1.00E-06,  avg # of iterations =  2.0

     Threshold (ethr) on eigenvalues was too large:
     Diagonalizing with lowered threshold

     Davidson diagonalization with overlap
     ethr =  7.15E-09,  avg # of iterations =  1.0

     negative rho (up, down):  8.744E-04 0.000E+00

     total cpu time spent up to now is       19.6 secs

     total energy              =     -43.78345390 Ry
     Harris-Foulkes estimate   =     -43.78331249 Ry
     estimated scf accuracy    <       0.00000058 Ry

     iteration #  2     ecut=    25.00 Ry     beta= 0.70
     Davidson diagonalization with overlap
     ethr =  7.30E-09,  avg # of iterations =  2.0

     negative rho (up, down):  8.752E-04 0.000E+00

     total cpu time spent up to now is       19.7 secs

     total energy              =     -43.78345400 Ry
     Harris-Foulkes estimate   =     -43.78345422 Ry
     estimated scf accuracy    <       0.00000041 Ry

     iteration #  3     ecut=    25.00 Ry     beta= 0.70
     Davidson diagonalization with overlap
     ethr =  5.18E-09,  avg # of iterations =  2.0

     negative rho (up, down):  8.754E-04 0.000E+00

     total cpu time spent up to now is       19.8 secs

     total energy              =     -43.78345410 Ry
     Harris-Foulkes estimate   =     -43.78345410 Ry
     estimated scf accuracy    <       0.00000001 Ry

     iteration #  4     ecut=    25.00 Ry     beta= 0.70
     Davidson diagonalization with overlap
     ethr =  1.34E-10,  avg # of iterations =  2.0

     negative rho (up, down):  8.754E-04 0.000E+00

     total cpu time spent up to now is       19.8 secs

     total energy              =     -43.78345410 Ry
     Harris-Foulkes estimate   =     -43.78345410 Ry
     estimated scf accuracy    <          1.5E-10 Ry

     iteration #  5     ecut=    25.00 Ry     beta= 0.70
     Davidson diagonalization with overlap
     ethr =  1.89E-12,  avg # of iterations =  2.0

     negative rho (up, down):  8.754E-04 0.000E+00

     total cpu time spent up to now is       19.9 secs

     End of self-consistent calculation

          k = 0.0000 0.0000 0.0000 (  1052 PWs)   bands (ev):

   -24.5967 -11.7104  -8.5639  -6.2348

     highest occupied level (ev):    -6.2348

!    total energy              =     -43.78345410 Ry
     Harris-Foulkes estimate   =     -43.78345410 Ry
     estimated scf accuracy    <          1.1E-11 Ry

     The total energy is the sum of the following terms:

     one-electron contribution =     -45.54816594 Ry
     hartree contribution      =      24.58532789 Ry
     xc contribution           =      -8.73907563 Ry
     ewald contribution        =      -4.55300285 Ry
     one-center paw contrib.   =      -9.52853757 Ry

     convergence has been achieved in   5 iterations

     negative rho (up, down):  8.754E-04 0.000E+00

     Forces acting on atoms (cartesian axes, Ry/au):

     atom    1 type  1   force =    -0.00011298    0.00022109    0.00015414
     atom    2 type  1   force =     0.00024995    0.00003987   -0.00001852
     atom    3 type  2   force =    -0.00013697   -0.00026097   -0.00013562

     Total force =     0.000505     Total SCF correction =     0.000008

     number of scf cycles    =  34
     number of bfgs steps    =  28

     energy   old            =     -43.7834518700 Ry
     energy   new            =     -43.7834540990 Ry

     CASE: energy  _new < energy  _old

     new trust radius        =       0.0003868575 bohr
     new conv_thr            =            1.0E-10 Ry


ATOMIC_POSITIONS (angstrom)
H             0.7778929939        0.1499175109        0.1420797580
H            -0.7659975813        0.1710588443        0.1817193779
O            -0.0118954126       -0.3009763552       -0.2737991358



     Writing output data file ./H20/H20.save/
     NEW-OLD atomic charge density approx. for the potential

     Check: negative core charge=   -0.000121

     negative rho (up, down):  8.755E-04 0.000E+00

     total cpu time spent up to now is       20.1 secs

     Self-consistent Calculation

     iteration #  1     ecut=    25.00 Ry     beta= 0.70
     Davidson diagonalization with overlap
     ethr =  1.00E-06,  avg # of iterations =  2.0

     Threshold (ethr) on eigenvalues was too large:
     Diagonalizing with lowered threshold

     Davidson diagonalization with overlap
     ethr =  5.80E-10,  avg # of iterations =  2.0

     negative rho (up, down):  8.753E-04 0.000E+00

     total cpu time spent up to now is       20.2 secs

     total energy              =     -43.78345427 Ry
     Harris-Foulkes estimate   =     -43.78339609 Ry
     estimated scf accuracy    <       0.00000004 Ry

     iteration #  2     ecut=    25.00 Ry     beta= 0.70
     Davidson diagonalization with overlap
     ethr =  5.06E-10,  avg # of iterations =  2.0

     negative rho (up, down):  8.755E-04 0.000E+00

     total cpu time spent up to now is       20.3 secs

     total energy              =     -43.78345427 Ry
     Harris-Foulkes estimate   =     -43.78345428 Ry
     estimated scf accuracy    <       0.00000002 Ry

     iteration #  3     ecut=    25.00 Ry     beta= 0.70
     Davidson diagonalization with overlap
     ethr =  2.72E-10,  avg # of iterations =  2.0

     negative rho (up, down):  8.755E-04 0.000E+00

     total cpu time spent up to now is       20.3 secs

     total energy              =     -43.78345428 Ry
     Harris-Foulkes estimate   =     -43.78345428 Ry
     estimated scf accuracy    <          1.7E-09 Ry

     iteration #  4     ecut=    25.00 Ry     beta= 0.70
     Davidson diagonalization with overlap
     ethr =  2.09E-11,  avg # of iterations =  2.0

     negative rho (up, down):  8.755E-04 0.000E+00

     total cpu time spent up to now is       20.4 secs

     End of self-consistent calculation

          k = 0.0000 0.0000 0.0000 (  1052 PWs)   bands (ev):

   -24.5962 -11.7079  -8.5654  -6.2347

     highest occupied level (ev):    -6.2347

!    total energy              =     -43.78345428 Ry
     Harris-Foulkes estimate   =     -43.78345428 Ry
     estimated scf accuracy    <          1.3E-11 Ry

     The total energy is the sum of the following terms:

     one-electron contribution =     -45.54616319 Ry
     hartree contribution      =      24.58435006 Ry
     xc contribution           =      -8.73891030 Ry
     ewald contribution        =      -4.55417378 Ry
     one-center paw contrib.   =      -9.52855706 Ry

     convergence has been achieved in   4 iterations

     negative rho (up, down):  8.755E-04 0.000E+00

     Forces acting on atoms (cartesian axes, Ry/au):

     atom    1 type  1   force =    -0.00027358    0.00004343   -0.00001321
     atom    2 type  1   force =     0.00016806   -0.00000175   -0.00005821
     atom    3 type  2   force =     0.00010552   -0.00004169    0.00007142

     Total force =     0.000356     Total SCF correction =     0.000006

     number of scf cycles    =  35
     number of bfgs steps    =  29

     energy   old            =     -43.7834540990 Ry
     energy   new            =     -43.7834542790 Ry

     CASE: energy  _new < energy  _old

     new trust radius        =       0.0006017526 bohr
     new conv_thr            =            1.0E-10 Ry


ATOMIC_POSITIONS (angstrom)
H             0.7776133681        0.1500560067        0.1421432278
H            -0.7657764814        0.1711033607        0.1816917059
O            -0.0118368867       -0.3011593674       -0.2738349337



     Writing output data file ./H20/H20.save/
     NEW-OLD atomic charge density approx. for the potential

     Check: negative core charge=   -0.000121

     negative rho (up, down):  8.760E-04 0.000E+00

     total cpu time spent up to now is       20.6 secs

     Self-consistent Calculation

     iteration #  1     ecut=    25.00 Ry     beta= 0.70
     Davidson diagonalization with overlap
     ethr =  1.00E-06,  avg # of iterations =  2.0

     Threshold (ethr) on eigenvalues was too large:
     Diagonalizing with lowered threshold

     Davidson diagonalization with overlap
     ethr =  3.23E-10,  avg # of iterations =  3.0

     negative rho (up, down):  8.760E-04 0.000E+00

     total cpu time spent up to now is       20.7 secs

     total energy              =     -43.78345462 Ry
     Harris-Foulkes estimate   =     -43.78340754 Ry
     estimated scf accuracy    <       0.00000003 Ry

     iteration #  2     ecut=    25.00 Ry     beta= 0.70
     Davidson diagonalization with overlap
     ethr =  3.99E-10,  avg # of iterations =  2.0

     negative rho (up, down):  8.759E-04 0.000E+00

     total cpu time spent up to now is       20.7 secs

     total energy              =     -43.78345462 Ry
     Harris-Foulkes estimate   =     -43.78345462 Ry
     estimated scf accuracy    <          3.5E-09 Ry

     iteration #  3     ecut=    25.00 Ry     beta= 0.70
     Davidson diagonalization with overlap
     ethr =  4.38E-11,  avg # of iterations =  2.0

     negative rho (up, down):  8.759E-04 0.000E+00

     total cpu time spent up to now is       20.8 secs

     total energy              =     -43.78345462 Ry
     Harris-Foulkes estimate   =     -43.78345462 Ry
     estimated scf accuracy    <          2.1E-09 Ry

     iteration #  4     ecut=    25.00 Ry     beta= 0.70
     Davidson diagonalization with overlap
     ethr =  2.63E-11,  avg # of iterations =  2.0

     negative rho (up, down):  8.759E-04 0.000E+00

     total cpu time spent up to now is       20.9 secs

     End of self-consistent calculation

          k = 0.0000 0.0000 0.0000 (  1052 PWs)   bands (ev):

   -24.5973 -11.7064  -8.5674  -6.2349

     highest occupied level (ev):    -6.2349

!    total energy              =     -43.78345462 Ry
     Harris-Foulkes estimate   =     -43.78345462 Ry
     estimated scf accuracy    <          3.3E-11 Ry

     The total energy is the sum of the following terms:

     one-electron contribution =     -45.54732065 Ry
     hartree contribution      =      24.58484165 Ry
     xc contribution           =      -8.73899408 Ry
     ewald contribution        =      -4.55341609 Ry
     one-center paw contrib.   =      -9.52856546 Ry

     convergence has been achieved in   4 iterations

     negative rho (up, down):  8.759E-04 0.000E+00

     Forces acting on atoms (cartesian axes, Ry/au):

     atom    1 type  1   force =    -0.00007227    0.00004317   -0.00001554
     atom    2 type  1   force =     0.00004736   -0.00004652   -0.00009824
     atom    3 type  2   force =     0.00002491    0.00000335    0.00011378

     Total force =     0.000187     Total SCF correction =     0.000007

     number of scf cycles    =  36
     number of bfgs steps    =  30

     energy   old            =     -43.7834542790 Ry
     energy   new            =     -43.7834546211 Ry

     CASE: energy  _new < energy  _old

     new trust radius        =       0.0002613274 bohr
     new conv_thr            =            1.0E-10 Ry


ATOMIC_POSITIONS (angstrom)
H             0.7775043035        0.1501383694        0.1421643228
H            -0.7656952134        0.1710973596        0.1816304140
O            -0.0118090901       -0.3012357290       -0.2737947368



     Writing output data file ./H20/H20.save/
     NEW-OLD atomic charge density approx. for the potential

     Check: negative core charge=   -0.000121

     negative rho (up, down):  8.761E-04 0.000E+00

     total cpu time spent up to now is       21.1 secs

     Self-consistent Calculation

     iteration #  1     ecut=    25.00 Ry     beta= 0.70
     Davidson diagonalization with overlap
     ethr =  1.00E-06,  avg # of iterations =  2.0

     Threshold (ethr) on eigenvalues was too large:
     Diagonalizing with lowered threshold

     Davidson diagonalization with overlap
     ethr =  8.01E-11,  avg # of iterations =  3.0

     negative rho (up, down):  8.762E-04 0.000E+00

     total cpu time spent up to now is       21.2 secs

     total energy              =     -43.78345473 Ry
     Harris-Foulkes estimate   =     -43.78344653 Ry
     estimated scf accuracy    <       0.00000001 Ry

     iteration #  2     ecut=    25.00 Ry     beta= 0.70
     Davidson diagonalization with overlap
     ethr =  1.37E-10,  avg # of iterations =  2.0

     negative rho (up, down):  8.761E-04 0.000E+00

     total cpu time spent up to now is       21.2 secs

     total energy              =     -43.78345474 Ry
     Harris-Foulkes estimate   =     -43.78345474 Ry
     estimated scf accuracy    <          4.8E-09 Ry

     iteration #  3     ecut=    25.00 Ry     beta= 0.70
     Davidson diagonalization with overlap
     ethr =  6.01E-11,  avg # of iterations =  2.0

     negative rho (up, down):  8.761E-04 0.000E+00

     total cpu time spent up to now is       21.3 secs

     total energy              =     -43.78345474 Ry
     Harris-Foulkes estimate   =     -43.78345474 Ry
     estimated scf accuracy    <          6.1E-10 Ry

     iteration #  4     ecut=    25.00 Ry     beta= 0.70
     Davidson diagonalization with overlap
     ethr =  7.58E-12,  avg # of iterations =  2.0

     negative rho (up, down):  8.761E-04 0.000E+00

     total cpu time spent up to now is       21.4 secs

     End of self-consistent calculation

          k = 0.0000 0.0000 0.0000 (  1052 PWs)   bands (ev):

   -24.5980 -11.7063  -8.5680  -6.2351

     highest occupied level (ev):    -6.2351

!    total energy              =     -43.78345474 Ry
     Harris-Foulkes estimate   =     -43.78345474 Ry
     estimated scf accuracy    <          3.0E-12 Ry

     The total energy is the sum of the following terms:

     one-electron contribution =     -45.54843498 Ry
     hartree contribution      =      24.58536831 Ry
     xc contribution           =      -8.73908464 Ry
     ewald contribution        =      -4.55273906 Ry
     one-center paw contrib.   =      -9.52856436 Ry

     convergence has been achieved in   4 iterations

     negative rho (up, down):  8.761E-04 0.000E+00

     Forces acting on atoms (cartesian axes, Ry/au):

     atom    1 type  1   force =     0.00001023    0.00005490   -0.00000330
     atom    2 type  1   force =    -0.00004416   -0.00002489   -0.00007431
     atom    3 type  2   force =     0.00003392   -0.00003000    0.00007761

     Total force =     0.000139     Total SCF correction =     0.000003

     bfgs converged in  37 scf cycles and  31 bfgs steps
     (criteria: energy <  1.0E-05 Ry, force <  1.0E-04 Ry/Bohr)

     End of BFGS Geometry Optimization

     Final energy   =     -43.7834547364 Ry
Begin final coordinates

ATOMIC_POSITIONS (angstrom)
H             0.7775043035        0.1501383694        0.1421643228
H            -0.7656952134        0.1710973596        0.1816304140
O            -0.0118090901       -0.3012357290       -0.2737947368
End final coordinates



     Writing output data file ./H20/H20.save/

     init_run     :      0.20s CPU      0.23s WALL (       1 calls)
     electrons    :     13.22s CPU     14.79s WALL (      37 calls)
     update_pot   :      2.17s CPU      2.30s WALL (      36 calls)
     forces       :      1.19s CPU      1.34s WALL (      37 calls)

     Called by init_run:
     wfcinit      :      0.00s CPU      0.00s WALL (       1 calls)
     potinit      :      0.06s CPU      0.08s WALL (       1 calls)
     hinit0       :      0.13s CPU      0.14s WALL (       1 calls)

     Called by electrons:
     c_bands      :      1.16s CPU      1.23s WALL (     219 calls)
     sum_band     :      1.52s CPU      1.47s WALL (     219 calls)
     v_of_rho     :      3.24s CPU      3.70s WALL (     244 calls)
     newd         :      1.08s CPU      1.47s WALL (     244 calls)
     PAW_pot      :      8.82s CPU      9.38s WALL (     280 calls)
     mix_rho      :      0.28s CPU      0.53s WALL (     219 calls)

     Called by c_bands:
     init_us_2    :      0.10s CPU      0.10s WALL (     475 calls)
     regterg      :      1.07s CPU      1.13s WALL (     219 calls)

     Called by sum_band:
     sum_band:bec :      0.00s CPU      0.00s WALL (     255 calls)
     addusdens    :      1.10s CPU      1.00s WALL (     219 calls)

     Called by *egterg:
     h_psi        :      0.87s CPU      0.90s WALL (     718 calls)
     s_psi        :      0.04s CPU      0.04s WALL (     718 calls)
     g_psi        :      0.01s CPU      0.01s WALL (     498 calls)
     rdiaghg      :      0.03s CPU      0.03s WALL (     669 calls)

     Called by h_psi:
     h_psi:calbec :      0.02s CPU      0.03s WALL (     718 calls)
     vloc_psi     :      0.79s CPU      0.82s WALL (     718 calls)
     add_vuspsi   :      0.04s CPU      0.05s WALL (     718 calls)

     General routines
     calbec       :      0.03s CPU      0.04s WALL (    1121 calls)
     fft          :      1.07s CPU      1.10s WALL (    2577 calls)
     ffts         :      0.09s CPU      0.09s WALL (     219 calls)
     fftw         :      0.79s CPU      0.80s WALL (    3148 calls)

     Parallel routines

     PWSCF        :     19.24s CPU     21.46s WALL


   This run was terminated on:  16:36:49  27Feb2020            

=------------------------------------------------------------------------------=
   JOB DONE.
=------------------------------------------------------------------------------=
