
     Program PWSCF v.6.5 starts on 17Feb2020 at 21:38: 0 

     This program is part of the open-source Quantum ESPRESSO suite
     for quantum simulation of materials; please cite
         "P. Giannozzi et al., J. Phys.:Condens. Matter 21 395502 (2009);
         "P. Giannozzi et al., J. Phys.:Condens. Matter 29 465901 (2017);
          URL http://www.quantum-espresso.org", 
     in publications or presentations arising from this work. More details at
     http://www.quantum-espresso.org/quote

     Parallel version (MPI), running on     1 processors

     MPI processes distributed on     1 nodes
     Reading input from espresso.pwi
Warning: card &IONS ignored
Warning: card / ignored
Warning: card &CELL ignored
Warning: card / ignored

     Current dimensions of program PWSCF are:
     Max number of different atomic species (ntypx) = 10
     Max number of k-points (npk) =  40000
     Max angular momentum in pseudopotentials (lmaxx) =  3

     Subspace diagonalization in iterative solution of the eigenvalue problem:
     a serial algorithm will be used

     Message from routine setup:
     using ibrav=0 with symmetry is DISCOURAGED, use correct ibrav instead

     G-vector sticks info
     --------------------
     sticks:   dense  smooth     PW     G-vecs:    dense   smooth      PW
     Sum        1285    1045    301                30467    22419    3479



     bravais-lattice index     =            0
     lattice parameter (alat)  =       7.5946  a.u.
     unit-cell volume          =     309.7463 (a.u.)^3
     number of atoms/cell      =            2
     number of atomic types    =            2
     number of electrons       =        16.00
     number of Kohn-Sham states=            8
     kinetic-energy cutoff     =      66.1041  Ry
     charge density cutoff     =     323.4230  Ry
     convergence threshold     =      1.0E-06
     mixing beta               =       0.7000
     number of iterations used =            8  plain     mixing
     Exchange-correlation= PBE
                           (   1   4   3   4   0   0   0)

     celldm(1)=   7.594638  celldm(2)=   0.000000  celldm(3)=   0.000000
     celldm(4)=   0.000000  celldm(5)=   0.000000  celldm(6)=   0.000000

     crystal axes: (cart. coord. in units of alat)
               a(1) = (   0.000000   0.707107   0.707107 )  
               a(2) = (   0.707107   0.000000   0.707107 )  
               a(3) = (   0.707107   0.707107   0.000000 )  

     reciprocal axes: (cart. coord. in units 2 pi/alat)
               b(1) = ( -0.707107  0.707107  0.707107 )  
               b(2) = (  0.707107 -0.707107  0.707107 )  
               b(3) = (  0.707107  0.707107 -0.707107 )  


     PseudoPot. # 1 for Na read from file:
     /Users/matt/espresso/pseudo/Na.pbe-spnl-rrkjus_psl.1.0.0.UPF
     MD5 check sum: 1d26e2eb43446ab266a33aefbd559171
     Pseudo is Ultrasoft + core correction, Zval =  9.0
     Generated using "atomic" code by A. Dal Corso v.6.3
     Using radial grid of 1121 points,  4 beta functions with: 
                l(1) =   0
                l(2) =   0
                l(3) =   1
                l(4) =   1
     Q(r) pseudized with 0 coefficients 


     PseudoPot. # 2 for Cl read from file:
     /Users/matt/espresso/pseudo/Cl.pbe-n-rrkjus_psl.1.0.0.UPF
     MD5 check sum: ecd63e55add66e16e2fc4813844a4ddc
     Pseudo is Ultrasoft + core correction, Zval =  7.0
     Generated using "atomic" code by A. Dal Corso v.6.3
     Using radial grid of 1157 points,  6 beta functions with: 
                l(1) =   0
                l(2) =   0
                l(3) =   1
                l(4) =   1
                l(5) =   2
                l(6) =   2
     Q(r) pseudized with 0 coefficients 


     atomic species   valence    mass     pseudopotential
        Na             9.00    22.98977     Na( 1.00)
        Cl             7.00    35.45000     Cl( 1.00)

     48 Sym. Ops., with inversion, found



   Cartesian axes

     site n.     atom                  positions (alat units)
         1           Na  tau(   1) = (   0.0000000   0.0000000   0.0000000  )
         2           Cl  tau(   2) = (   0.7071068   0.0000000   0.0000000  )

     number of k points=     4
                       cart. coord. in units 2pi/alat
        k(    1) = (   0.0000000   0.0000000   0.0000000), wk =   0.0740741
        k(    2) = (   0.2357023   0.2357023  -0.2357023), wk =   0.5925926
        k(    3) = (   0.4714045   0.0000000   0.0000000), wk =   0.4444444
        k(    4) = (  -0.0000000  -0.4714045   0.4714045), wk =   0.8888889

     Dense  grid:    30467 G-vectors     FFT dimensions: (  45,  45,  45)

     Smooth grid:    22419 G-vectors     FFT dimensions: (  40,  40,  40)

     Estimated max dynamical RAM per process >     119.56 MB

     Check: negative core charge=   -0.000001

     Initial potential from superposition of free atoms

     starting charge   15.99370, renormalised to   16.00000
     Starting wfcs are    9 randomized atomic wfcs

     total cpu time spent up to now is        1.9 secs

     Self-consistent Calculation

     iteration #  1     ecut=    66.10 Ry     beta= 0.70
     Davidson diagonalization with overlap
     ethr =  1.00E-02,  avg # of iterations =  1.0

     Threshold (ethr) on eigenvalues was too large:
     Diagonalizing with lowered threshold

     Davidson diagonalization with overlap
     ethr =  3.97E-04,  avg # of iterations =  1.8

     total cpu time spent up to now is        2.7 secs

     total energy              =    -131.86550944 Ry
     Harris-Foulkes estimate   =    -131.89826952 Ry
     estimated scf accuracy    <       0.05432273 Ry

     iteration #  2     ecut=    66.10 Ry     beta= 0.70
     Davidson diagonalization with overlap
     ethr =  3.40E-04,  avg # of iterations =  2.0

     total cpu time spent up to now is        3.2 secs

     total energy              =    -131.88039128 Ry
     Harris-Foulkes estimate   =    -131.88703381 Ry
     estimated scf accuracy    <       0.01299222 Ry

     iteration #  3     ecut=    66.10 Ry     beta= 0.70
     Davidson diagonalization with overlap
     ethr =  8.12E-05,  avg # of iterations =  2.0

     total cpu time spent up to now is        3.7 secs

     total energy              =    -131.88319273 Ry
     Harris-Foulkes estimate   =    -131.88304943 Ry
     estimated scf accuracy    <       0.00025801 Ry

     iteration #  4     ecut=    66.10 Ry     beta= 0.70
     Davidson diagonalization with overlap
     ethr =  1.61E-06,  avg # of iterations =  2.0

     total cpu time spent up to now is        4.1 secs

     total energy              =    -131.88323137 Ry
     Harris-Foulkes estimate   =    -131.88323019 Ry
     estimated scf accuracy    <       0.00000243 Ry

     iteration #  5     ecut=    66.10 Ry     beta= 0.70
     Davidson diagonalization with overlap
     ethr =  1.52E-08,  avg # of iterations =  3.5

     total cpu time spent up to now is        4.6 secs

     End of self-consistent calculation

          k = 0.0000 0.0000 0.0000 (  2741 PWs)   bands (ev):

   -48.1664 -20.0814 -20.0814 -20.0814 -11.7946   0.8082   0.8082   0.8082

          k = 0.2357 0.2357-0.2357 (  2812 PWs)   bands (ev):

   -48.1660 -20.1014 -20.0833 -20.0833 -11.5639  -0.6691   0.6176   0.6176

          k = 0.4714 0.0000 0.0000 (  2822 PWs)   bands (ev):

   -48.1659 -20.0969 -20.0874 -20.0874 -11.5181  -0.5438   0.3647   0.3647

          k =-0.0000-0.4714 0.4714 (  2798 PWs)   bands (ev):

   -48.1657 -20.0980 -20.0946 -20.0860 -11.4365  -0.4686  -0.3708   0.4012

     highest occupied level (ev):     0.8082

!    total energy              =    -131.88323360 Ry
     Harris-Foulkes estimate   =    -131.88323320 Ry
     estimated scf accuracy    <       0.00000011 Ry

     The total energy is the sum of the following terms:

     one-electron contribution =     -85.40593616 Ry
     hartree contribution      =      47.47153266 Ry
     xc contribution           =     -25.67058113 Ry
     ewald contribution        =     -68.27824897 Ry

     convergence has been achieved in   5 iterations

     Forces acting on atoms (cartesian axes, Ry/au):

     atom    1 type  1   force =     0.00000000    0.00000000    0.00000000
     atom    2 type  2   force =     0.00000000    0.00000000    0.00000000

     Total force =     0.000000     Total SCF correction =     0.000000


     Computing stress (Cartesian axis) and pressure

          total   stress  (Ry/bohr**3)                   (kbar)     P=       -0.06
  -0.00000038   0.00000000   0.00000000           -0.06        0.00        0.00
   0.00000000  -0.00000038   0.00000000            0.00       -0.06        0.00
   0.00000000   0.00000000  -0.00000038            0.00        0.00       -0.06


     Writing output data file ./pwscf.save/

     init_run     :      0.73s CPU      0.79s WALL (       1 calls)
     electrons    :      2.56s CPU      2.73s WALL (       1 calls)
     forces       :      0.21s CPU      0.22s WALL (       1 calls)
     stress       :      0.73s CPU      0.74s WALL (       1 calls)

     Called by init_run:
     wfcinit      :      0.07s CPU      0.07s WALL (       1 calls)
     potinit      :      0.05s CPU      0.06s WALL (       1 calls)
     hinit0       :      0.51s CPU      0.52s WALL (       1 calls)

     Called by electrons:
     c_bands      :      0.94s CPU      0.94s WALL (       6 calls)
     sum_band     :      0.95s CPU      0.88s WALL (       6 calls)
     v_of_rho     :      0.26s CPU      0.31s WALL (       6 calls)
     newd         :      0.49s CPU      0.66s WALL (       6 calls)
     mix_rho      :      0.02s CPU      0.07s WALL (       6 calls)

     Called by c_bands:
     init_us_2    :      0.06s CPU      0.06s WALL (      60 calls)
     cegterg      :      0.85s CPU      0.86s WALL (      24 calls)

     Called by sum_band:
     sum_band:bec :      0.00s CPU      0.00s WALL (      24 calls)
     addusdens    :      0.71s CPU      0.61s WALL (       6 calls)

     Called by *egterg:
     h_psi        :      0.78s CPU      0.78s WALL (      77 calls)
     s_psi        :      0.04s CPU      0.03s WALL (      77 calls)
     g_psi        :      0.01s CPU      0.01s WALL (      49 calls)
     cdiaghg      :      0.01s CPU      0.01s WALL (      69 calls)

     Called by h_psi:
     h_psi:calbec :      0.04s CPU      0.04s WALL (      77 calls)
     vloc_psi     :      0.69s CPU      0.71s WALL (      77 calls)
     add_vuspsi   :      0.04s CPU      0.03s WALL (      77 calls)

     General routines
     calbec       :      0.06s CPU      0.06s WALL (     121 calls)
     fft          :      0.13s CPU      0.14s WALL (     102 calls)
     ffts         :      0.01s CPU      0.01s WALL (      12 calls)
     fftw         :      0.74s CPU      0.76s WALL (    1214 calls)
     interpolate  :      0.02s CPU      0.02s WALL (       6 calls)

     Parallel routines

     PWSCF        :      5.28s CPU      5.64s WALL


   This run was terminated on:  21:38: 6  17Feb2020            

=------------------------------------------------------------------------------=
   JOB DONE.
=------------------------------------------------------------------------------=
