
     Program PWSCF v.6.5 starts on 27Feb2020 at 17:39: 4 

     This program is part of the open-source Quantum ESPRESSO suite
     for quantum simulation of materials; please cite
         "P. Giannozzi et al., J. Phys.:Condens. Matter 21 395502 (2009);
         "P. Giannozzi et al., J. Phys.:Condens. Matter 29 465901 (2017);
          URL http://www.quantum-espresso.org", 
     in publications or presentations arising from this work. More details at
     http://www.quantum-espresso.org/quote

     Parallel version (MPI), running on     1 processors

     MPI processes distributed on     1 nodes
     Reading input from Si_better_nscf.pwi
Warning: card &IONS ignored
Warning: card / ignored
Warning: card &CELL ignored
Warning: card / ignored

     Current dimensions of program PWSCF are:
     Max number of different atomic species (ntypx) = 10
     Max number of k-points (npk) =  40000
     Max angular momentum in pseudopotentials (lmaxx) =  3

     Atomic positions and unit cell read from directory:
     ./Si_better/Si_better.save/                                                                                                                                                                                                                                     


     Subspace diagonalization in iterative solution of the eigenvalue problem:
     a serial algorithm will be used


     G-vector sticks info
     --------------------
     sticks:   dense  smooth     PW     G-vecs:    dense   smooth      PW
     Sum         745     745    235                13323    13323    2277



     bravais-lattice index     =            2
     lattice parameter (alat)  =      10.3574  a.u.
     unit-cell volume          =     277.7752 (a.u.)^3
     number of atoms/cell      =            2
     number of atomic types    =            1
     number of electrons       =         8.00
     number of Kohn-Sham states=            8
     kinetic-energy cutoff     =      50.0000  Ry
     charge density cutoff     =     200.0000  Ry
     Exchange-correlation= PBE
                           (   1   4   3   4   0   0   0)

     celldm(1)=  10.357410  celldm(2)=   0.000000  celldm(3)=   0.000000
     celldm(4)=   0.000000  celldm(5)=   0.000000  celldm(6)=   0.000000

     crystal axes: (cart. coord. in units of alat)
               a(1) = (  -0.500000   0.000000   0.500000 )  
               a(2) = (   0.000000   0.500000   0.500000 )  
               a(3) = (  -0.500000   0.500000   0.000000 )  

     reciprocal axes: (cart. coord. in units 2 pi/alat)
               b(1) = ( -1.000000 -1.000000  1.000000 )  
               b(2) = (  1.000000  1.000000  1.000000 )  
               b(3) = ( -1.000000  1.000000 -1.000000 )  


     PseudoPot. # 1 for Si read from file:
     /Users/matt/QE/SSSP_precision_pseudos/Si.pbe-n-rrkjus_psl.1.0.0.UPF
     MD5 check sum: 0b0bb1205258b0d07b9f9672cf965d36
     Pseudo is Ultrasoft + core correction, Zval =  4.0
     Generated using "atomic" code by A. Dal Corso v.5.1
     Using radial grid of 1141 points,  6 beta functions with: 
                l(1) =   0
                l(2) =   0
                l(3) =   1
                l(4) =   1
                l(5) =   2
                l(6) =   2
     Q(r) pseudized with 0 coefficients 


     atomic species   valence    mass     pseudopotential
        Si             4.00    28.08500     Si( 1.00)

     48 Sym. Ops., with inversion, found (24 have fractional translation)



   Cartesian axes

     site n.     atom                  positions (alat units)
         1           Si  tau(   1) = (   0.0000000   0.0000000   0.0000000  )
         2           Si  tau(   2) = (   0.2500000   0.2500000   0.2500000  )

     number of k points=    72 (tetrahedron method)
                       cart. coord. in units 2pi/alat
        k(    1) = (   0.0000000   0.0000000   0.0000000), wk =   0.0011574
        k(    2) = (  -0.0833333   0.0833333  -0.0833333), wk =   0.0092593
        k(    3) = (  -0.1666667   0.1666667  -0.1666667), wk =   0.0092593
        k(    4) = (  -0.2500000   0.2500000  -0.2500000), wk =   0.0092593
        k(    5) = (  -0.3333333   0.3333333  -0.3333333), wk =   0.0092593
        k(    6) = (  -0.4166667   0.4166667  -0.4166667), wk =   0.0092593
        k(    7) = (   0.5000000  -0.5000000   0.5000000), wk =   0.0046296
        k(    8) = (   0.0000000   0.1666667   0.0000000), wk =   0.0069444
        k(    9) = (  -0.0833333   0.2500000  -0.0833333), wk =   0.0277778
        k(   10) = (  -0.1666667   0.3333333  -0.1666667), wk =   0.0277778
        k(   11) = (  -0.2500000   0.4166667  -0.2500000), wk =   0.0277778
        k(   12) = (  -0.3333333   0.5000000  -0.3333333), wk =   0.0277778
        k(   13) = (   0.5833333  -0.4166667   0.5833333), wk =   0.0277778
        k(   14) = (   0.5000000  -0.3333333   0.5000000), wk =   0.0277778
        k(   15) = (   0.4166667  -0.2500000   0.4166667), wk =   0.0277778
        k(   16) = (   0.3333333  -0.1666667   0.3333333), wk =   0.0277778
        k(   17) = (   0.2500000  -0.0833333   0.2500000), wk =   0.0277778
        k(   18) = (   0.1666667  -0.0000000   0.1666667), wk =   0.0138889
        k(   19) = (   0.0000000   0.3333333   0.0000000), wk =   0.0069444
        k(   20) = (  -0.0833333   0.4166667  -0.0833333), wk =   0.0277778
        k(   21) = (  -0.1666667   0.5000000  -0.1666667), wk =   0.0277778
        k(   22) = (  -0.2500000   0.5833333  -0.2500000), wk =   0.0277778
        k(   23) = (   0.6666667  -0.3333333   0.6666667), wk =   0.0277778
        k(   24) = (   0.5833333  -0.2500000   0.5833333), wk =   0.0277778
        k(   25) = (   0.5000000  -0.1666667   0.5000000), wk =   0.0277778
        k(   26) = (   0.4166667  -0.0833333   0.4166667), wk =   0.0277778
        k(   27) = (   0.3333333   0.0000000   0.3333333), wk =   0.0138889
        k(   28) = (   0.0000000   0.5000000   0.0000000), wk =   0.0069444
        k(   29) = (  -0.0833333   0.5833333  -0.0833333), wk =   0.0277778
        k(   30) = (  -0.1666667   0.6666667  -0.1666667), wk =   0.0277778
        k(   31) = (   0.7500000  -0.2500000   0.7500000), wk =   0.0277778
        k(   32) = (   0.6666667  -0.1666667   0.6666667), wk =   0.0277778
        k(   33) = (   0.5833333  -0.0833333   0.5833333), wk =   0.0277778
        k(   34) = (   0.5000000   0.0000000   0.5000000), wk =   0.0138889
        k(   35) = (   0.0000000   0.6666667   0.0000000), wk =   0.0069444
        k(   36) = (  -0.0833333   0.7500000  -0.0833333), wk =   0.0277778
        k(   37) = (   0.8333333  -0.1666667   0.8333333), wk =   0.0277778
        k(   38) = (   0.7500000  -0.0833333   0.7500000), wk =   0.0277778
        k(   39) = (   0.6666667  -0.0000000   0.6666667), wk =   0.0138889
        k(   40) = (   0.0000000   0.8333333   0.0000000), wk =   0.0069444
        k(   41) = (   0.9166667  -0.0833333   0.9166667), wk =   0.0277778
        k(   42) = (   0.8333333   0.0000000   0.8333333), wk =   0.0138889
        k(   43) = (   0.0000000  -1.0000000   0.0000000), wk =   0.0034722
        k(   44) = (  -0.1666667   0.3333333  -0.0000000), wk =   0.0277778
        k(   45) = (  -0.2500000   0.4166667  -0.0833333), wk =   0.0555556
        k(   46) = (  -0.3333333   0.5000000  -0.1666667), wk =   0.0555556
        k(   47) = (   0.5833333  -0.4166667   0.7500000), wk =   0.0555556
        k(   48) = (   0.5000000  -0.3333333   0.6666667), wk =   0.0277778
        k(   49) = (  -0.1666667   0.5000000   0.0000000), wk =   0.0277778
        k(   50) = (  -0.2500000   0.5833333  -0.0833333), wk =   0.0555556
        k(   51) = (   0.6666667  -0.3333333   0.8333333), wk =   0.0555556
        k(   52) = (   0.5833333  -0.2500000   0.7500000), wk =   0.0555556
        k(   53) = (   0.5000000  -0.1666667   0.6666667), wk =   0.0555556
        k(   54) = (   0.4166667  -0.0833333   0.5833333), wk =   0.0555556
        k(   55) = (   0.3333333   0.0000000   0.5000000), wk =   0.0277778
        k(   56) = (  -0.1666667   0.6666667  -0.0000000), wk =   0.0277778
        k(   57) = (   0.7500000  -0.2500000   0.9166667), wk =   0.0555556
        k(   58) = (   0.6666667  -0.1666667   0.8333333), wk =   0.0555556
        k(   59) = (   0.5833333  -0.0833333   0.7500000), wk =   0.0555556
        k(   60) = (   0.5000000   0.0000000   0.6666667), wk =   0.0277778
        k(   61) = (   0.8333333  -0.1666667   1.0000000), wk =   0.0277778
        k(   62) = (   0.7500000  -0.0833333   0.9166667), wk =   0.0555556
        k(   63) = (   0.6666667   0.0000000   0.8333333), wk =   0.0277778
        k(   64) = (  -0.1666667  -1.0000000   0.0000000), wk =   0.0138889
        k(   65) = (   0.6666667  -0.3333333   1.0000000), wk =   0.0277778
        k(   66) = (   0.5833333  -0.2500000   0.9166667), wk =   0.0555556
        k(   67) = (   0.5000000  -0.1666667   0.8333333), wk =   0.0277778
        k(   68) = (   0.6666667  -0.1666667   1.0000000), wk =   0.0277778
        k(   69) = (   0.5833333  -0.0833333   0.9166667), wk =   0.0555556
        k(   70) = (   0.5000000   0.0000000   0.8333333), wk =   0.0277778
        k(   71) = (  -0.3333333  -1.0000000  -0.0000000), wk =   0.0138889
        k(   72) = (  -0.5000000  -1.0000000   0.0000000), wk =   0.0069444

     Dense  grid:    13323 G-vectors     FFT dimensions: (  36,  36,  36)

     Estimated max dynamical RAM per process >      46.13 MB

     Check: negative core charge=   -0.000001

     The potential is recalculated from file :
     ./Si_better/Si_better.save/charge-density

     Starting wfcs are    8 randomized atomic wfcs

     Band Structure Calculation
     Davidson diagonalization with overlap

     ethr =  1.25E-10,  avg # of iterations = 18.8

     total cpu time spent up to now is       11.8 secs

     End of band structure calculation

          k = 0.0000 0.0000 0.0000 (  1639 PWs)   bands (ev):

    -5.8555   5.9186   5.9186   5.9186   8.4693   8.4693   8.4693   8.9647

          k =-0.0833 0.0833-0.0833 (  1669 PWs)   bands (ev):

    -5.7667   5.0586   5.7789   5.7789   8.4622   8.6748   8.6748   9.6856

          k =-0.1667 0.1667-0.1667 (  1666 PWs)   bands (ev):

    -5.5030   3.5565   5.4794   5.4794   8.1776   9.1020   9.1020  11.1343

          k =-0.2500 0.2500-0.2500 (  1654 PWs)   bands (ev):

    -5.0755   2.0397   5.1759   5.1759   7.8507   9.4016   9.4016  12.6092

          k =-0.3333 0.3333-0.3333 (  1634 PWs)   bands (ev):

    -4.5142   0.6635   4.9390   4.9390   7.5841   9.4198   9.4198  13.6712

          k =-0.4167 0.4167-0.4167 (  1673 PWs)   bands (ev):

    -3.9139  -0.4366   4.7925   4.7925   7.4155   9.3208   9.3208  13.6899

          k = 0.5000-0.5000 0.5000 (  1676 PWs)   bands (ev):

    -3.5937  -0.9249   4.7433   4.7433   7.3583   9.2709   9.2709  13.6164

          k = 0.0000 0.1667 0.0000 (  1663 PWs)   bands (ev):

    -5.7369   5.2020   5.5026   5.5026   8.2024   9.0312   9.0312   9.6323

          k =-0.0833 0.2500-0.0833 (  1663 PWs)   bands (ev):

    -5.5310   3.9928   5.1480   5.3225   8.2202   9.0528   9.5573  10.6328

          k =-0.1667 0.3333-0.1667 (  1654 PWs)   bands (ev):

    -5.1566   2.5213   4.8411   5.0039   8.3089   9.0663   9.9425  11.2636

          k =-0.2500 0.4167-0.2500 (  1652 PWs)   bands (ev):

    -4.6347   1.1167   4.6341   4.6571   8.1387   9.1901   9.9821  11.8457

          k =-0.3333 0.5000-0.3333 (  1662 PWs)   bands (ev):

    -4.0279  -0.0826   4.3670   4.5443   7.9653   9.1808   9.8042  12.8695

          k = 0.5833-0.4167 0.5833 (  1664 PWs)   bands (ev):

    -3.5560  -0.8279   4.1675   4.5726   7.8804   9.1919   9.6147  13.7711

          k = 0.5000-0.3333 0.5000 (  1659 PWs)   bands (ev):

    -3.6717  -0.6565   4.0764   4.7111   7.9032   9.3079   9.5057  13.8788

          k = 0.4167-0.2500 0.4167 (  1649 PWs)   bands (ev):

    -4.2331   0.2875   4.1062   4.9446   8.0329   9.4663   9.5074  13.2950

          k = 0.3333-0.1667 0.3333 (  1654 PWs)   bands (ev):

    -4.8238   1.5704   4.2663   5.2476   8.2571   9.3711   9.6405  12.3136

          k = 0.2500-0.0833 0.2500 (  1662 PWs)   bands (ev):

    -5.3000   2.9970   4.5686   5.5698   8.5414   9.0659   9.4088  11.4892

          k = 0.1667-0.0000 0.1667 (  1671 PWs)   bands (ev):

    -5.6193   4.3258   5.0827   5.8009   8.7140   8.7538   8.8590  10.5191

          k = 0.0000 0.3333 0.0000 (  1655 PWs)   bands (ev):

    -5.3829   3.8550   4.7598   4.7598   7.6337  10.0934  10.2048  10.2048

          k =-0.0833 0.4167-0.0833 (  1659 PWs)   bands (ev):

    -5.0637   2.7959   4.4119   4.4328   7.6525   9.7430  10.5583  10.7594

          k =-0.1667 0.5000-0.1667 (  1661 PWs)   bands (ev):

    -4.5881   1.5204   3.9647   4.2180   7.8873   9.9002  10.4184  10.9385

          k =-0.2500 0.5833-0.2500 (  1655 PWs)   bands (ev):

    -3.9974   0.3190   3.5336   4.1343   7.9306  10.0862  10.7774  10.9368

          k = 0.6667-0.3333 0.6667 (  1669 PWs)   bands (ev):

    -3.4342  -0.5861   3.1972   4.1852   7.9560   9.9622  10.5182  12.2668

          k = 0.5833-0.2500 0.5833 (  1655 PWs)   bands (ev):

    -3.3249  -0.7396   2.9906   4.3633   8.0878   9.9252  10.2971  13.7893

          k = 0.5000-0.1667 0.5000 (  1664 PWs)   bands (ev):

    -3.8056  -0.0059   2.9400   4.6500   8.3332   9.9897  10.1268  13.0801

          k = 0.4167-0.0833 0.4167 (  1656 PWs)   bands (ev):

    -4.4114   1.1081   3.0891   5.0082   8.6410   9.8871  10.0508  11.9327

          k = 0.3333 0.0000 0.3333 (  1646 PWs)   bands (ev):

    -4.9294   2.2225   3.5750   5.3626   8.8714   9.4453   9.7202  11.4721

          k = 0.0000 0.5000 0.0000 (  1636 PWs)   bands (ev):

    -4.7994   2.3944   4.0791   4.0791   7.0754   9.0552  11.5861  11.5861

          k =-0.0833 0.5833-0.0833 (  1664 PWs)   bands (ev):

    -4.3736   1.5052   3.6248   3.8377   7.1585   8.7148  11.8535  12.0673

          k =-0.1667 0.6667-0.1667 (  1662 PWs)   bands (ev):

    -3.8137   0.5044   3.0079   3.7320   7.3787   9.1702  11.7077  12.0444

          k = 0.7500-0.2500 0.7500 (  1661 PWs)   bands (ev):

    -3.2091  -0.3926   2.4739   3.7686   7.4671  10.3476  11.5312  11.7831

          k = 0.6667-0.1667 0.6667 (  1660 PWs)   bands (ev):

    -2.8989  -0.7905   2.1210   3.9433   7.6390  11.3120  11.4923  11.9743

          k = 0.5833-0.0833 0.5833 (  1658 PWs)   bands (ev):

    -3.2614  -0.3143   2.0094   4.2397   7.9487  11.1863  11.2773  12.9648

          k = 0.5000 0.0000 0.5000 (  1658 PWs)   bands (ev):

    -3.8644   0.4860   2.2708   4.6210   8.3505  10.6512  10.9904  11.9216

          k = 0.0000 0.6667 0.0000 (  1668 PWs)   bands (ev):

    -3.9971   0.9290   3.5629   3.5629   6.6861   7.9505  13.0615  13.0615

          k =-0.0833 0.7500-0.0833 (  1660 PWs)   bands (ev):

    -3.4758   0.1603   3.0935   3.4230   6.8480   7.8173  13.3640  13.4377

          k = 0.8333-0.1667 0.8333 (  1662 PWs)   bands (ev):

    -2.8646  -0.5899   2.3903   3.4284   7.0252   8.6437  13.2466  13.2738

          k = 0.7500-0.0833 0.7500 (  1658 PWs)   bands (ev):

    -2.4139  -1.0646   1.8307   3.5779   7.1974  10.0627  12.9261  13.0809

          k = 0.6667-0.0000 0.6667 (  1668 PWs)   bands (ev):

    -2.6807  -0.7831   1.6350   3.8588   7.5127  11.6941  12.3008  12.8542

          k = 0.0000 0.8333 0.0000 (  1652 PWs)   bands (ev):

    -2.9927  -0.4895   3.2447   3.2447   6.5407   7.1478  14.5871  14.5871

          k = 0.9167-0.0833 0.9167 (  1661 PWs)   bands (ev):

    -2.3949  -1.1619   2.8299   3.2115   6.7428   7.3001  14.8349  14.9079

          k = 0.8333 0.0000 0.8333 (  1664 PWs)   bands (ev):

    -1.9567  -1.5536   2.1849   3.3256   6.9000   8.4706  14.2902  14.7503

          k = 0.0000-1.0000 0.0000 (  1660 PWs)   bands (ev):

    -1.8117  -1.8117   3.1374   3.1374   6.6838   6.6838  15.7858  15.7858

          k =-0.1667 0.3333-0.0000 (  1658 PWs)   bands (ev):

    -5.2688   3.1948   4.3326   5.2235   8.2499   9.3538  10.0218  10.7754

          k =-0.2500 0.4167-0.0833 (  1654 PWs)   bands (ev):

    -4.8434   1.9815   3.8069   4.9560   8.5150   9.3425  10.4280  10.7989

          k =-0.3333 0.5000-0.1667 (  1654 PWs)   bands (ev):

    -4.2837   0.7134   3.5359   4.6385   8.5295   9.2791  10.4900  11.4273

          k = 0.5833-0.4167 0.7500 (  1654 PWs)   bands (ev):

    -3.6819  -0.3455   3.4062   4.4001   8.4562   9.1276  10.4174  12.6092

          k = 0.5000-0.3333 0.6667 (  1660 PWs)   bands (ev):

    -3.3573  -0.8262   3.3694   4.3117   8.4270   9.0562  10.3749  13.8809

          k =-0.1667 0.5000 0.0000 (  1660 PWs)   bands (ev):

    -4.6920   2.0091   3.6536   4.3305   7.7178   9.4270  10.6679  11.4705

          k =-0.2500 0.5833-0.0833 (  1654 PWs)   bands (ev):

    -4.1733   0.9846   3.1250   4.0522   8.0463   9.6503  10.4109  11.8550

          k = 0.6667-0.3333 0.8333 (  1649 PWs)   bands (ev):

    -3.5661  -0.0382   2.7705   3.8492   8.1674  10.0873  10.6731  11.8421

          k = 0.5833-0.2500 0.7500 (  1660 PWs)   bands (ev):

    -3.0878  -0.7197   2.5287   3.8318   8.2897   9.8175  11.7353  12.1219

          k = 0.5000-0.1667 0.6667 (  1658 PWs)   bands (ev):

    -3.2183  -0.5392   2.4163   3.9986   8.5264   9.6376  11.6448  12.5196

          k = 0.4167-0.0833 0.5833 (  1657 PWs)   bands (ev):

    -3.7889   0.3088   2.4958   4.3055   8.8640   9.5025  11.1435  11.6252

          k = 0.3333 0.0000 0.5000 (  1668 PWs)   bands (ev):

    -4.3746   1.2629   2.9064   4.6751   9.1079   9.2128  10.5688  11.1821

          k =-0.1667 0.6667-0.0000 (  1668 PWs)   bands (ev):

    -3.9015   0.7592   3.1559   3.5718   7.3334   8.4224  11.8808  13.0128

          k = 0.7500-0.2500 0.9167 (  1660 PWs)   bands (ev):

    -3.3124  -0.0568   2.5853   3.3622   7.6670   8.9330  11.5893  13.3757

          k = 0.6667-0.1667 0.8333 (  1661 PWs)   bands (ev):

    -2.7425  -0.7494   2.0793   3.3694   7.8196  10.2051  11.2980  13.3018

          k = 0.5833-0.0833 0.7500 (  1661 PWs)   bands (ev):

    -2.6762  -0.8160   1.8005   3.5618   8.0678  10.9336  11.9002  12.5433

          k = 0.5000 0.0000 0.6667 (  1651 PWs)   bands (ev):

    -3.1965  -0.2414   1.8860   3.8967   8.4444  10.5179  11.3567  12.6743

          k = 0.8333-0.1667 1.0000 (  1662 PWs)   bands (ev):

    -2.9184  -0.5266   2.8792   3.0718   7.1723   7.6889  13.2370  14.5792

          k = 0.7500-0.0833 0.9167 (  1662 PWs)   bands (ev):

    -2.3078  -1.1552   2.2750   3.0287   7.4637   8.5670  12.9275  14.3605

          k = 0.6667 0.0000 0.8333 (  1664 PWs)   bands (ev):

    -2.1634  -1.2617   1.7947   3.2202   7.6947  10.0702  12.4749  12.8641

          k =-0.1667-1.0000 0.0000 (  1666 PWs)   bands (ev):

    -1.7762  -1.7762   2.8454   2.8454   7.2795   7.2795  14.6722  14.6722

          k = 0.6667-0.3333 1.0000 (  1657 PWs)   bands (ev):

    -3.6241   0.3160   2.4486   3.6874   8.7610   9.6415  10.0767  12.8754

          k = 0.5833-0.2500 0.9167 (  1659 PWs)   bands (ev):

    -3.0188  -0.4339   2.1087   3.3623   9.1382   9.6583  10.6160  13.3001

          k = 0.5000-0.1667 0.8333 (  1660 PWs)   bands (ev):

    -2.6717  -0.8475   2.0158   3.2374   9.2897   9.4220  11.9645  12.3296

          k = 0.6667-0.1667 1.0000 (  1655 PWs)   bands (ev):

    -2.7131  -0.6689   2.2572   2.8618   8.5997   9.0108  11.2215  14.0903

          k = 0.5833-0.0833 0.9167 (  1657 PWs)   bands (ev):

    -2.2071  -1.1629   1.9544   2.7118   8.9408  10.1966  10.9429  12.3204

          k = 0.5000 0.0000 0.8333 (  1655 PWs)   bands (ev):

    -2.4330  -0.9370   1.8332   2.9297   9.2381  10.3652  10.8522  12.0726

          k =-0.3333-1.0000-0.0000 (  1654 PWs)   bands (ev):

    -1.7005  -1.7005   2.3802   2.3802   8.6720   8.6720  12.5817  12.5817

          k =-0.5000-1.0000 0.0000 (  1648 PWs)   bands (ev):

    -1.6599  -1.6599   2.1812   2.1812  10.1944  10.1944  10.8237  10.8237

     the Fermi energy is     6.3177 ev

     Writing output data file ./Si_better/Si_better.save/

     init_run     :      0.41s CPU      0.44s WALL (       1 calls)
     electrons    :     11.26s CPU     10.67s WALL (       1 calls)

     Called by init_run:
     wfcinit      :      0.00s CPU      0.00s WALL (       1 calls)
     potinit      :      0.02s CPU      0.03s WALL (       1 calls)
     hinit0       :      0.34s CPU      0.34s WALL (       1 calls)

     Called by electrons:
     c_bands      :     11.24s CPU     10.66s WALL (       1 calls)
     v_of_rho     :      0.02s CPU      0.02s WALL (       1 calls)
     newd         :      0.03s CPU      0.04s WALL (       1 calls)

     Called by c_bands:
     init_us_2    :      0.04s CPU      0.04s WALL (      72 calls)
     cegterg      :     10.31s CPU      9.74s WALL (      89 calls)

     Called by sum_band:

     Called by *egterg:
     h_psi        :      8.60s CPU      8.37s WALL (    1511 calls)
     s_psi        :      0.53s CPU      0.36s WALL (    1511 calls)
     g_psi        :      0.08s CPU      0.08s WALL (    1350 calls)
     cdiaghg      :      0.22s CPU      0.23s WALL (    1422 calls)

     Called by h_psi:
     h_psi:calbec :      0.59s CPU      0.39s WALL (    1511 calls)
     vloc_psi     :      7.42s CPU      7.57s WALL (    1511 calls)
     add_vuspsi   :      0.55s CPU      0.38s WALL (    1511 calls)

     General routines
     calbec       :      0.59s CPU      0.38s WALL (    1511 calls)
     fft          :      0.01s CPU      0.01s WALL (      12 calls)
     fftw         :      6.41s CPU      6.53s WALL (   16388 calls)
     davcio       :      0.00s CPU      0.01s WALL (     144 calls)

     Parallel routines

     PWSCF        :     12.37s CPU     11.91s WALL


   This run was terminated on:  17:39:16  27Feb2020            

=------------------------------------------------------------------------------=
   JOB DONE.
=------------------------------------------------------------------------------=
