
     Program PWSCF v.6.5 starts on 27Feb2020 at 17:38:30 

     This program is part of the open-source Quantum ESPRESSO suite
     for quantum simulation of materials; please cite
         "P. Giannozzi et al., J. Phys.:Condens. Matter 21 395502 (2009);
         "P. Giannozzi et al., J. Phys.:Condens. Matter 29 465901 (2017);
          URL http://www.quantum-espresso.org", 
     in publications or presentations arising from this work. More details at
     http://www.quantum-espresso.org/quote

     Parallel version (MPI), running on     1 processors

     MPI processes distributed on     1 nodes
     Reading input from Si_better_scf.pwi
Warning: card &IONS ignored
Warning: card / ignored
Warning: card &CELL ignored
Warning: card / ignored

     Current dimensions of program PWSCF are:
     Max number of different atomic species (ntypx) = 10
     Max number of k-points (npk) =  40000
     Max angular momentum in pseudopotentials (lmaxx) =  3

     Subspace diagonalization in iterative solution of the eigenvalue problem:
     a serial algorithm will be used


     G-vector sticks info
     --------------------
     sticks:   dense  smooth     PW     G-vecs:    dense   smooth      PW
     Sum         745     745    223                13323    13323    2229



     bravais-lattice index     =            2
     lattice parameter (alat)  =      10.3574  a.u.
     unit-cell volume          =     277.7752 (a.u.)^3
     number of atoms/cell      =            2
     number of atomic types    =            1
     number of electrons       =         8.00
     number of Kohn-Sham states=            4
     kinetic-energy cutoff     =      50.0000  Ry
     charge density cutoff     =     200.0000  Ry
     convergence threshold     =      1.0E-08
     mixing beta               =       0.7000
     number of iterations used =            8  plain     mixing
     Exchange-correlation= PBE
                           (   1   4   3   4   0   0   0)

     celldm(1)=  10.357410  celldm(2)=   0.000000  celldm(3)=   0.000000
     celldm(4)=   0.000000  celldm(5)=   0.000000  celldm(6)=   0.000000

     crystal axes: (cart. coord. in units of alat)
               a(1) = (  -0.500000   0.000000   0.500000 )  
               a(2) = (   0.000000   0.500000   0.500000 )  
               a(3) = (  -0.500000   0.500000   0.000000 )  

     reciprocal axes: (cart. coord. in units 2 pi/alat)
               b(1) = ( -1.000000 -1.000000  1.000000 )  
               b(2) = (  1.000000  1.000000  1.000000 )  
               b(3) = ( -1.000000  1.000000 -1.000000 )  


     PseudoPot. # 1 for Si read from file:
     /Users/matt/QE/SSSP_precision_pseudos/Si.pbe-n-rrkjus_psl.1.0.0.UPF
     MD5 check sum: 0b0bb1205258b0d07b9f9672cf965d36
     Pseudo is Ultrasoft + core correction, Zval =  4.0
     Generated using "atomic" code by A. Dal Corso v.5.1
     Using radial grid of 1141 points,  6 beta functions with: 
                l(1) =   0
                l(2) =   0
                l(3) =   1
                l(4) =   1
                l(5) =   2
                l(6) =   2
     Q(r) pseudized with 0 coefficients 


     atomic species   valence    mass     pseudopotential
        Si             4.00    28.08500     Si( 1.00)

     48 Sym. Ops., with inversion, found (24 have fractional translation)



   Cartesian axes

     site n.     atom                  positions (alat units)
         1           Si  tau(   1) = (   0.0000000   0.0000000   0.0000000  )
         2           Si  tau(   2) = (   0.2500000   0.2500000   0.2500000  )

     number of k points=    29
                       cart. coord. in units 2pi/alat
        k(    1) = (   0.0000000   0.0000000   0.0000000), wk =   0.0039062
        k(    2) = (  -0.1250000   0.1250000  -0.1250000), wk =   0.0312500
        k(    3) = (  -0.2500000   0.2500000  -0.2500000), wk =   0.0312500
        k(    4) = (  -0.3750000   0.3750000  -0.3750000), wk =   0.0312500
        k(    5) = (   0.5000000  -0.5000000   0.5000000), wk =   0.0156250
        k(    6) = (   0.0000000   0.2500000   0.0000000), wk =   0.0234375
        k(    7) = (  -0.1250000   0.3750000  -0.1250000), wk =   0.0937500
        k(    8) = (  -0.2500000   0.5000000  -0.2500000), wk =   0.0937500
        k(    9) = (   0.6250000  -0.3750000   0.6250000), wk =   0.0937500
        k(   10) = (   0.5000000  -0.2500000   0.5000000), wk =   0.0937500
        k(   11) = (   0.3750000  -0.1250000   0.3750000), wk =   0.0937500
        k(   12) = (   0.2500000   0.0000000   0.2500000), wk =   0.0468750
        k(   13) = (   0.0000000   0.5000000   0.0000000), wk =   0.0234375
        k(   14) = (  -0.1250000   0.6250000  -0.1250000), wk =   0.0937500
        k(   15) = (   0.7500000  -0.2500000   0.7500000), wk =   0.0937500
        k(   16) = (   0.6250000  -0.1250000   0.6250000), wk =   0.0937500
        k(   17) = (   0.5000000   0.0000000   0.5000000), wk =   0.0468750
        k(   18) = (   0.0000000   0.7500000   0.0000000), wk =   0.0234375
        k(   19) = (   0.8750000  -0.1250000   0.8750000), wk =   0.0937500
        k(   20) = (   0.7500000   0.0000000   0.7500000), wk =   0.0468750
        k(   21) = (   0.0000000  -1.0000000   0.0000000), wk =   0.0117188
        k(   22) = (  -0.2500000   0.5000000   0.0000000), wk =   0.0937500
        k(   23) = (   0.6250000  -0.3750000   0.8750000), wk =   0.1875000
        k(   24) = (   0.5000000  -0.2500000   0.7500000), wk =   0.0937500
        k(   25) = (   0.7500000  -0.2500000   1.0000000), wk =   0.0937500
        k(   26) = (   0.6250000  -0.1250000   0.8750000), wk =   0.1875000
        k(   27) = (   0.5000000   0.0000000   0.7500000), wk =   0.0937500
        k(   28) = (  -0.2500000  -1.0000000   0.0000000), wk =   0.0468750
        k(   29) = (  -0.5000000  -1.0000000   0.0000000), wk =   0.0234375

     Dense  grid:    13323 G-vectors     FFT dimensions: (  36,  36,  36)

     Estimated max dynamical RAM per process >      52.78 MB

     Check: negative core charge=   -0.000001

     Initial potential from superposition of free atoms

     starting charge    7.99888, renormalised to    8.00000
     Starting wfcs are    8 randomized atomic wfcs

     total cpu time spent up to now is        1.3 secs

     Self-consistent Calculation

     iteration #  1     ecut=    50.00 Ry     beta= 0.70
     Davidson diagonalization with overlap
     ethr =  1.00E-02,  avg # of iterations =  2.0

     Threshold (ethr) on eigenvalues was too large:
     Diagonalizing with lowered threshold

     Davidson diagonalization with overlap
     ethr =  6.64E-04,  avg # of iterations =  1.3

     total cpu time spent up to now is        2.5 secs

     total energy              =     -22.83744675 Ry
     Harris-Foulkes estimate   =     -22.84970968 Ry
     estimated scf accuracy    <       0.05271000 Ry

     iteration #  2     ecut=    50.00 Ry     beta= 0.70
     Davidson diagonalization with overlap
     ethr =  6.59E-04,  avg # of iterations =  1.0

     total cpu time spent up to now is        3.0 secs

     total energy              =     -22.83922444 Ry
     Harris-Foulkes estimate   =     -22.83946593 Ry
     estimated scf accuracy    <       0.00266656 Ry

     iteration #  3     ecut=    50.00 Ry     beta= 0.70
     Davidson diagonalization with overlap
     ethr =  3.33E-05,  avg # of iterations =  2.8

     total cpu time spent up to now is        3.6 secs

     total energy              =     -22.83986232 Ry
     Harris-Foulkes estimate   =     -22.83992456 Ry
     estimated scf accuracy    <       0.00013943 Ry

     iteration #  4     ecut=    50.00 Ry     beta= 0.70
     Davidson diagonalization with overlap
     ethr =  1.74E-06,  avg # of iterations =  2.2

     total cpu time spent up to now is        4.3 secs

     total energy              =     -22.83987800 Ry
     Harris-Foulkes estimate   =     -22.83991781 Ry
     estimated scf accuracy    <       0.00008315 Ry

     iteration #  5     ecut=    50.00 Ry     beta= 0.70
     Davidson diagonalization with overlap
     ethr =  1.04E-06,  avg # of iterations =  2.0

     total cpu time spent up to now is        4.9 secs

     total energy              =     -22.83988690 Ry
     Harris-Foulkes estimate   =     -22.83988684 Ry
     estimated scf accuracy    <       0.00000003 Ry

     iteration #  6     ecut=    50.00 Ry     beta= 0.70
     Davidson diagonalization with overlap
     ethr =  3.20E-10,  avg # of iterations =  4.8

     total cpu time spent up to now is        5.8 secs

     total energy              =     -22.83988735 Ry
     Harris-Foulkes estimate   =     -22.83988740 Ry
     estimated scf accuracy    <       0.00000016 Ry

     iteration #  7     ecut=    50.00 Ry     beta= 0.70
     Davidson diagonalization with overlap
     ethr =  3.20E-10,  avg # of iterations =  2.0

     total cpu time spent up to now is        6.5 secs

     total energy              =     -22.83988734 Ry
     Harris-Foulkes estimate   =     -22.83988735 Ry
     estimated scf accuracy    <       0.00000002 Ry

     iteration #  8     ecut=    50.00 Ry     beta= 0.70
     Davidson diagonalization with overlap
     ethr =  2.25E-10,  avg # of iterations =  2.0

     total cpu time spent up to now is        7.1 secs

     End of self-consistent calculation

          k = 0.0000 0.0000 0.0000 (  1639 PWs)   bands (ev):

    -5.8555   5.9185   5.9185   5.9185

          k =-0.1250 0.1250-0.1250 (  1678 PWs)   bands (ev):

    -5.6563   4.3265   5.6372   5.6372

          k =-0.2500 0.2500-0.2500 (  1654 PWs)   bands (ev):

    -5.0756   2.0397   5.1759   5.1759

          k =-0.3750 0.3750-0.3750 (  1655 PWs)   bands (ev):

    -4.2073   0.0658   4.8538   4.8538

          k = 0.5000-0.5000 0.5000 (  1676 PWs)   bands (ev):

    -3.5938  -0.9249   4.7433   4.7433

          k = 0.0000 0.2500 0.0000 (  1667 PWs)   bands (ev):

    -5.5891   4.5569   5.1363   5.1363

          k =-0.1250 0.3750-0.1250 (  1654 PWs)   bands (ev):

    -5.1319   2.7134   4.6359   4.6959

          k =-0.2500 0.5000-0.2500 (  1660 PWs)   bands (ev):

    -4.3387   0.7028   4.1144   4.3715

          k = 0.6250-0.3750 0.6250 (  1662 PWs)   bands (ev):

    -3.5068  -0.7177   3.6797   4.3926

          k = 0.5000-0.2500 0.5000 (  1658 PWs)   bands (ev):

    -3.7418  -0.3593   3.5065   4.6800

          k = 0.3750-0.1250 0.3750 (  1657 PWs)   bands (ev):

    -4.6366   1.3452   3.6620   5.1587

          k = 0.2500 0.0000 0.2500 (  1650 PWs)   bands (ev):

    -5.3283   3.2422   4.3386   5.6286

          k = 0.0000 0.5000 0.0000 (  1636 PWs)   bands (ev):

    -4.7995   2.3944   4.0790   4.0790

          k =-0.1250 0.6250-0.1250 (  1659 PWs)   bands (ev):

    -4.1074   1.0054   3.3173   3.7671

          k = 0.7500-0.2500 0.7500 (  1661 PWs)   bands (ev):

    -3.2092  -0.3927   2.4738   3.7686

          k = 0.6250-0.1250 0.6250 (  1658 PWs)   bands (ev):

    -3.0142  -0.6401   2.0297   4.0779

          k = 0.5000 0.0000 0.5000 (  1658 PWs)   bands (ev):

    -3.8645   0.4860   2.2708   4.6209

          k = 0.0000 0.7500 0.0000 (  1664 PWs)   bands (ev):

    -3.5188   0.2107   3.3779   3.3779

          k = 0.8750-0.1250 0.8750 (  1660 PWs)   bands (ev):

    -2.6452  -0.8501   2.5796   3.3029

          k = 0.7500 0.0000 0.7500 (  1666 PWs)   bands (ev):

    -2.2267  -1.2319   1.7446   3.5537

          k = 0.0000-1.0000 0.0000 (  1660 PWs)   bands (ev):

    -1.8118  -1.8118   3.1374   3.1374

          k =-0.2500 0.5000 0.0000 (  1660 PWs)   bands (ev):

    -4.5588   1.6513   3.2813   4.5237

          k = 0.6250-0.3750 0.8750 (  1654 PWs)   bands (ev):

    -3.6954   0.1414   2.6782   4.0402

          k = 0.5000-0.2500 0.7500 (  1644 PWs)   bands (ev):

    -3.0668  -0.7704   2.5460   3.8190

          k = 0.7500-0.2500 1.0000 (  1662 PWs)   bands (ev):

    -3.3272  -0.0034   2.6491   3.2378

          k = 0.6250-0.1250 0.8750 (  1658 PWs)   bands (ev):

    -2.4802  -0.9459   1.9744   3.0433

          k = 0.5000 0.0000 0.7500 (  1655 PWs)   bands (ev):

    -2.8217  -0.5898   1.8133   3.4073

          k =-0.2500-1.0000 0.0000 (  1662 PWs)   bands (ev):

    -1.7393  -1.7393   2.5986   2.5986

          k =-0.5000-1.0000 0.0000 (  1648 PWs)   bands (ev):

    -1.6600  -1.6600   2.1811   2.1811

     highest occupied level (ev):     5.9185

!    total energy              =     -22.83988735 Ry
     Harris-Foulkes estimate   =     -22.83988735 Ry
     estimated scf accuracy    <          1.8E-10 Ry

     The total energy is the sum of the following terms:

     one-electron contribution =       4.95306684 Ry
     hartree contribution      =       1.12582255 Ry
     xc contribution           =     -12.27585750 Ry
     ewald contribution        =     -16.64291924 Ry

     convergence has been achieved in   8 iterations

     Writing output data file ./Si_better/Si_better.save/

     init_run     :      0.71s CPU      0.78s WALL (       1 calls)
     electrons    :      5.85s CPU      5.74s WALL (       1 calls)

     Called by init_run:
     wfcinit      :      0.30s CPU      0.29s WALL (       1 calls)
     potinit      :      0.03s CPU      0.05s WALL (       1 calls)
     hinit0       :      0.33s CPU      0.34s WALL (       1 calls)

     Called by electrons:
     c_bands      :      4.36s CPU      4.21s WALL (       9 calls)
     sum_band     :      1.09s CPU      0.98s WALL (       9 calls)
     v_of_rho     :      0.18s CPU      0.21s WALL (       9 calls)
     newd         :      0.27s CPU      0.38s WALL (       9 calls)
     mix_rho      :      0.02s CPU      0.05s WALL (       9 calls)

     Called by c_bands:
     init_us_2    :      0.28s CPU      0.28s WALL (     551 calls)
     cegterg      :      3.60s CPU      3.45s WALL (     261 calls)

     Called by sum_band:
     sum_band:bec :      0.00s CPU      0.00s WALL (     261 calls)
     addusdens    :      0.38s CPU      0.28s WALL (       9 calls)

     Called by *egterg:
     h_psi        :      3.32s CPU      3.21s WALL (     871 calls)
     s_psi        :      0.22s CPU      0.16s WALL (     871 calls)
     g_psi        :      0.02s CPU      0.02s WALL (     581 calls)
     cdiaghg      :      0.04s CPU      0.04s WALL (     813 calls)

     Called by h_psi:
     h_psi:calbec :      0.23s CPU      0.17s WALL (     871 calls)
     vloc_psi     :      2.84s CPU      2.86s WALL (     871 calls)
     add_vuspsi   :      0.23s CPU      0.17s WALL (     871 calls)

     General routines
     calbec       :      0.30s CPU      0.21s WALL (    1132 calls)
     fft          :      0.06s CPU      0.06s WALL (     100 calls)
     ffts         :      0.01s CPU      0.01s WALL (       9 calls)
     fftw         :      2.82s CPU      2.84s WALL (    7562 calls)

     Parallel routines

     PWSCF        :      7.10s CPU      7.12s WALL


   This run was terminated on:  17:38:37  27Feb2020            

=------------------------------------------------------------------------------=
   JOB DONE.
=------------------------------------------------------------------------------=
