
     Program PWSCF v.6.5 starts on 27Feb2020 at 16:17:26 

     This program is part of the open-source Quantum ESPRESSO suite
     for quantum simulation of materials; please cite
         "P. Giannozzi et al., J. Phys.:Condens. Matter 21 395502 (2009);
         "P. Giannozzi et al., J. Phys.:Condens. Matter 29 465901 (2017);
          URL http://www.quantum-espresso.org", 
     in publications or presentations arising from this work. More details at
     http://www.quantum-espresso.org/quote

     Parallel version (MPI), running on     1 processors

     MPI processes distributed on     1 nodes
     Reading input from Si.pwi

     Current dimensions of program PWSCF are:
     Max number of different atomic species (ntypx) = 10
     Max number of k-points (npk) =  40000
     Max angular momentum in pseudopotentials (lmaxx) =  3

     Subspace diagonalization in iterative solution of the eigenvalue problem:
     a serial algorithm will be used


     G-vector sticks info
     --------------------
     sticks:   dense  smooth     PW     G-vecs:    dense   smooth      PW
     Sum         817     817    241                15185    15185    2445



     bravais-lattice index     =            2
     lattice parameter (alat)  =      14.0000  a.u.
     unit-cell volume          =     686.0000 (a.u.)^3
     number of atoms/cell      =            2
     number of atomic types    =            1
     number of electrons       =         8.00
     number of Kohn-Sham states=            4
     kinetic-energy cutoff     =      30.0000  Ry
     charge density cutoff     =     120.0000  Ry
     convergence threshold     =      1.0E-07
     mixing beta               =       0.7000
     number of iterations used =            8  plain     mixing
     Exchange-correlation= PBE
                           (   1   4   3   4   0   0   0)
     nstep                     =           50


     celldm(1)=  14.000000  celldm(2)=   0.000000  celldm(3)=   0.000000
     celldm(4)=   0.000000  celldm(5)=   0.000000  celldm(6)=   0.000000

     crystal axes: (cart. coord. in units of alat)
               a(1) = (  -0.500000   0.000000   0.500000 )  
               a(2) = (   0.000000   0.500000   0.500000 )  
               a(3) = (  -0.500000   0.500000   0.000000 )  

     reciprocal axes: (cart. coord. in units 2 pi/alat)
               b(1) = ( -1.000000 -1.000000  1.000000 )  
               b(2) = (  1.000000  1.000000  1.000000 )  
               b(3) = ( -1.000000  1.000000 -1.000000 )  


     PseudoPot. # 1 for Si read from file:
     /Users/matt/QE/SSSP_precision_pseudos/Si.pbe-n-rrkjus_psl.1.0.0.UPF
     MD5 check sum: 0b0bb1205258b0d07b9f9672cf965d36
     Pseudo is Ultrasoft + core correction, Zval =  4.0
     Generated using "atomic" code by A. Dal Corso v.5.1
     Using radial grid of 1141 points,  6 beta functions with: 
                l(1) =   0
                l(2) =   0
                l(3) =   1
                l(4) =   1
                l(5) =   2
                l(6) =   2
     Q(r) pseudized with 0 coefficients 


     atomic species   valence    mass     pseudopotential
        Si             4.00    28.08500     Si( 1.00)

     48 Sym. Ops., with inversion, found (24 have fractional translation)



   Cartesian axes

     site n.     atom                  positions (alat units)
         1           Si  tau(   1) = (   0.0000000   0.0000000   0.0000000  )
         2           Si  tau(   2) = (   0.2500000   0.2500000   0.2500000  )

     number of k points=     8
                       cart. coord. in units 2pi/alat
        k(    1) = (   0.0000000   0.0000000   0.0000000), wk =   0.0312500
        k(    2) = (  -0.2500000   0.2500000  -0.2500000), wk =   0.2500000
        k(    3) = (   0.5000000  -0.5000000   0.5000000), wk =   0.1250000
        k(    4) = (   0.0000000   0.5000000   0.0000000), wk =   0.1875000
        k(    5) = (   0.7500000  -0.2500000   0.7500000), wk =   0.7500000
        k(    6) = (   0.5000000   0.0000000   0.5000000), wk =   0.3750000
        k(    7) = (   0.0000000  -1.0000000   0.0000000), wk =   0.0937500
        k(    8) = (  -0.5000000  -1.0000000   0.0000000), wk =   0.1875000

     Dense  grid:    15185 G-vectors     FFT dimensions: (  36,  36,  36)

     Estimated max dynamical RAM per process >      62.10 MB

     Check: negative core charge=   -0.000003

     Initial potential from superposition of free atoms

     starting charge    7.99888, renormalised to    8.00000
     Starting wfcs are    8 randomized atomic wfcs

     total cpu time spent up to now is        2.1 secs

     Self-consistent Calculation

     iteration #  1     ecut=    30.00 Ry     beta= 0.70
     Davidson diagonalization with overlap
     ethr =  1.00E-02,  avg # of iterations =  1.0

     Threshold (ethr) on eigenvalues was too large:
     Diagonalizing with lowered threshold

     Davidson diagonalization with overlap
     ethr =  1.37E-04,  avg # of iterations =  3.0

     total cpu time spent up to now is        2.6 secs

     total energy              =     -22.51793191 Ry
     Harris-Foulkes estimate   =     -22.51728778 Ry
     estimated scf accuracy    <       0.01257075 Ry

     iteration #  2     ecut=    30.00 Ry     beta= 0.70
     Davidson diagonalization with overlap
     ethr =  1.57E-04,  avg # of iterations =  1.0

     total cpu time spent up to now is        2.9 secs

     total energy              =     -22.51820581 Ry
     Harris-Foulkes estimate   =     -22.51813578 Ry
     estimated scf accuracy    <       0.00116702 Ry

     iteration #  3     ecut=    30.00 Ry     beta= 0.70
     Davidson diagonalization with overlap
     ethr =  1.46E-05,  avg # of iterations =  1.5

     total cpu time spent up to now is        3.2 secs

     total energy              =     -22.51828582 Ry
     Harris-Foulkes estimate   =     -22.51828891 Ry
     estimated scf accuracy    <       0.00000989 Ry

     iteration #  4     ecut=    30.00 Ry     beta= 0.70
     Davidson diagonalization with overlap
     c_bands:  1 eigenvalues not converged
     ethr =  1.24E-07,  avg # of iterations =  7.2

     total cpu time spent up to now is        4.0 secs

     total energy              =     -22.51862342 Ry
     Harris-Foulkes estimate   =     -22.51862571 Ry
     estimated scf accuracy    <       0.00007253 Ry

     iteration #  5     ecut=    30.00 Ry     beta= 0.70
     Davidson diagonalization with overlap
     ethr =  1.24E-07,  avg # of iterations =  1.4

     total cpu time spent up to now is        4.3 secs

     total energy              =     -22.51862819 Ry
     Harris-Foulkes estimate   =     -22.51862405 Ry
     estimated scf accuracy    <       0.00014709 Ry

     iteration #  6     ecut=    30.00 Ry     beta= 0.70
     Davidson diagonalization with overlap
     ethr =  1.24E-07,  avg # of iterations =  1.8

     total cpu time spent up to now is        4.9 secs

     total energy              =     -22.51862871 Ry
     Harris-Foulkes estimate   =     -22.51862928 Ry
     estimated scf accuracy    <       0.00003351 Ry

     iteration #  7     ecut=    30.00 Ry     beta= 0.70
     Davidson diagonalization with overlap
     ethr =  1.24E-07,  avg # of iterations =  2.0

     total cpu time spent up to now is        5.4 secs

     End of self-consistent calculation

          k = 0.0000 0.0000 0.0000 (  1917 PWs)   bands (ev):

    -8.0080  -3.9984  -0.2014  -0.2014

          k =-0.2500 0.2500-0.2500 (  1910 PWs)   bands (ev):

    -7.7117  -4.7476  -0.4975  -0.4975

          k = 0.5000-0.5000 0.5000 (  1916 PWs)   bands (ev):

    -7.2516  -5.5692  -0.7071  -0.7071

          k = 0.0000 0.5000 0.0000 (  1924 PWs)   bands (ev):

    -7.5963  -4.9574  -0.8739  -0.8739

          k = 0.7500-0.2500 0.7500 (  1903 PWs)   bands (ev):

    -7.0446  -5.8132  -1.4770  -1.0335

          k = 0.5000 0.0000 0.5000 (  1915 PWs)   bands (ev):

    -7.2750  -5.4956  -1.4820  -0.7268

          k = 0.0000-1.0000 0.0000 (  1868 PWs)   bands (ev):

    -6.4683  -6.4683  -1.2825  -1.2825

          k =-0.5000-1.0000 0.0000 (  1888 PWs)   bands (ev):

    -6.4623  -6.4623  -1.4822  -1.4822

     highest occupied level (ev):    -0.2014

!    total energy              =     -22.51863019 Ry
     Harris-Foulkes estimate   =     -22.51863021 Ry
     estimated scf accuracy    <       0.00000004 Ry

     The total energy is the sum of the following terms:

     one-electron contribution =      -0.82192961 Ry
     hartree contribution      =       2.17849033 Ry
     xc contribution           =     -11.56250969 Ry
     ewald contribution        =     -12.31268123 Ry

     convergence has been achieved in   7 iterations

     Forces acting on atoms (cartesian axes, Ry/au):

     atom    1 type  1   force =     0.00000000   -0.00000000   -0.00000000
     atom    2 type  1   force =    -0.00000000    0.00000000    0.00000000

     Total force =     0.000000     Total SCF correction =     0.000000


     Computing stress (Cartesian axis) and pressure

          total   stress  (Ry/bohr**3)                   (kbar)     P=      -89.19
  -0.00060629   0.00000000   0.00000000          -89.19        0.00        0.00
   0.00000000  -0.00060629  -0.00000000            0.00      -89.19       -0.00
   0.00000000  -0.00000000  -0.00060629            0.00       -0.00      -89.19


     BFGS Geometry Optimization

     number of scf cycles    =   1
     number of bfgs steps    =   0

     enthalpy new            =     -22.5186301926 Ry

     new trust radius        =       0.0793982340 bohr
ibrav =      2
 celldm(1) =     13.78779935
Input lattice vectors:
    -0.49242140    -0.00000000     0.49242140
     0.00000000     0.49242140     0.49242140
    -0.49242140     0.49242140    -0.00000000
New lattice vectors in INITIAL alat:
    -0.49242140     0.00000000     0.49242140
     0.00000000     0.49242140     0.49242140
    -0.49242140     0.49242140     0.00000000
New lattice vectors in NEW alat (for information only):
    -0.50000000     0.00000000     0.50000000
     0.00000000     0.50000000     0.50000000
    -0.50000000     0.50000000     0.00000000
Discrepancy in bohr =     0.000000    0.000000    0.000000
     new conv_thr            =       0.0000001000 Ry

     new unit-cell volume =    655.27692 a.u.^3 (    97.10202 Ang^3 )
     density =      0.96056 g/cm^3

CELL_PARAMETERS (alat= 14.00000006)
  -0.492421403   0.000000000   0.492421403
   0.000000000   0.492421403   0.492421403
  -0.492421403   0.492421403   0.000000000

ATOMIC_POSITIONS (angstrom)
Si            0.0000000000       -0.0000000000       -0.0000000000
Si            1.8240472924        1.8240472924        1.8240472924



     Writing output data file ./Si/Si.save/
     NEW-OLD atomic charge density approx. for the potential

     Check: negative core charge=   -0.000002
     extrapolated charge    7.62497, renormalised to    8.00000

     total cpu time spent up to now is        8.8 secs

     Self-consistent Calculation

     iteration #  1     ecut=    30.00 Ry     beta= 0.70
     Davidson diagonalization with overlap
     ethr =  1.00E-06,  avg # of iterations =  5.0

     total cpu time spent up to now is        9.4 secs

     total energy              =     -22.53493948 Ry
     Harris-Foulkes estimate   =     -22.46555127 Ry
     estimated scf accuracy    <       0.00176985 Ry

     iteration #  2     ecut=    30.00 Ry     beta= 0.70
     Davidson diagonalization with overlap
     ethr =  2.21E-05,  avg # of iterations =  3.2

     total cpu time spent up to now is       10.0 secs

     total energy              =     -22.53787309 Ry
     Harris-Foulkes estimate   =     -22.53821677 Ry
     estimated scf accuracy    <       0.00103689 Ry

     iteration #  3     ecut=    30.00 Ry     beta= 0.70
     Davidson diagonalization with overlap
     ethr =  1.30E-05,  avg # of iterations =  1.0

     total cpu time spent up to now is       10.3 secs

     total energy              =     -22.53788669 Ry
     Harris-Foulkes estimate   =     -22.53791357 Ry
     estimated scf accuracy    <       0.00025203 Ry

     iteration #  4     ecut=    30.00 Ry     beta= 0.70
     Davidson diagonalization with overlap
     ethr =  3.15E-06,  avg # of iterations =  1.0

     total cpu time spent up to now is       10.7 secs

     total energy              =     -22.53782503 Ry
     Harris-Foulkes estimate   =     -22.53789194 Ry
     estimated scf accuracy    <       0.00018651 Ry

     iteration #  5     ecut=    30.00 Ry     beta= 0.70
     Davidson diagonalization with overlap
     ethr =  2.33E-06,  avg # of iterations =  2.4

     total cpu time spent up to now is       11.2 secs

     total energy              =     -22.53780956 Ry
     Harris-Foulkes estimate   =     -22.53791438 Ry
     estimated scf accuracy    <       0.00021303 Ry

     iteration #  6     ecut=    30.00 Ry     beta= 0.70
     Davidson diagonalization with overlap
     ethr =  2.33E-06,  avg # of iterations =  1.9

     total cpu time spent up to now is       11.8 secs

     total energy              =     -22.53782873 Ry
     Harris-Foulkes estimate   =     -22.53782889 Ry
     estimated scf accuracy    <       0.00000050 Ry

     iteration #  7     ecut=    30.00 Ry     beta= 0.70
     Davidson diagonalization with overlap
     ethr =  6.20E-09,  avg # of iterations =  3.2

     total cpu time spent up to now is       12.2 secs

     End of self-consistent calculation

          k = 0.0000 0.0000 0.0000 (  1917 PWs)   bands (ev):

    -7.9266  -3.5945  -0.0049  -0.0049

          k =-0.2538 0.2538-0.2538 (  1910 PWs)   bands (ev):

    -7.6122  -4.4402  -0.3174  -0.3174

          k = 0.5077-0.5077 0.5077 (  1916 PWs)   bands (ev):

    -7.1204  -5.3426  -0.5369  -0.5369

          k = 0.0000 0.5077 0.0000 (  1924 PWs)   bands (ev):

    -7.4902  -4.6648  -0.7167  -0.7167

          k = 0.7615-0.2538 0.7615 (  1903 PWs)   bands (ev):

    -6.9024  -5.5927  -1.3553  -0.8831

          k = 0.5077 0.0000 0.5077 (  1915 PWs)   bands (ev):

    -7.1477  -5.2516  -1.3630  -0.5586

          k = 0.0000-1.0154 0.0000 (  1868 PWs)   bands (ev):

    -6.2903  -6.2903  -1.1454  -1.1454

          k =-0.5077-1.0154 0.0000 (  1888 PWs)   bands (ev):

    -6.2830  -6.2830  -1.3628  -1.3628

     highest occupied level (ev):    -0.0049

!    total energy              =     -22.53783009 Ry
     Harris-Foulkes estimate   =     -22.53783004 Ry
     estimated scf accuracy    <       0.00000008 Ry

     The total energy is the sum of the following terms:

     one-electron contribution =      -0.56606125 Ry
     hartree contribution      =       2.11452657 Ry
     xc contribution           =     -11.58411625 Ry
     ewald contribution        =     -12.50217916 Ry

     convergence has been achieved in   7 iterations

     Forces acting on atoms (cartesian axes, Ry/au):

     atom    1 type  1   force =     0.00000000   -0.00000000    0.00000000
     atom    2 type  1   force =     0.00000000    0.00000000   -0.00000000

     Total force =     0.000000     Total SCF correction =     0.000000


     Computing stress (Cartesian axis) and pressure

          total   stress  (Ry/bohr**3)                   (kbar)     P=      -94.70
  -0.00064376  -0.00000000   0.00000000          -94.70       -0.00        0.00
  -0.00000000  -0.00064376   0.00000000           -0.00      -94.70        0.00
   0.00000000   0.00000000  -0.00064376            0.00        0.00      -94.70


     number of scf cycles    =   2
     number of bfgs steps    =   1

     enthalpy old            =     -22.5186301926 Ry
     enthalpy new            =     -22.5378300853 Ry

     CASE: enthalpy_new < enthalpy_old


     WARNING: bfgs curvature condition failed, Theta= 0.777
     new trust radius        =       0.1181913138 bohr
ibrav =      2
 celldm(1) =     13.46949829
Input lattice vectors:
    -0.48105351    -0.00000000     0.48105351
     0.00000000     0.48105351     0.48105351
    -0.48105351     0.48105351    -0.00000000
New lattice vectors in INITIAL alat:
    -0.48105351     0.00000000     0.48105351
     0.00000000     0.48105351     0.48105351
    -0.48105351     0.48105351     0.00000000
New lattice vectors in NEW alat (for information only):
    -0.50000000     0.00000000     0.50000000
     0.00000000     0.50000000     0.50000000
    -0.50000000     0.50000000     0.00000000
Discrepancy in bohr =     0.000000    0.000000    0.000000
     new conv_thr            =       0.0000000010 Ry

     new unit-cell volume =    610.93396 a.u.^3 (    90.53107 Ang^3 )
     density =      1.03028 g/cm^3

CELL_PARAMETERS (alat= 14.00000006)
  -0.481053508   0.000000000   0.481053508
   0.000000000   0.481053508   0.481053508
  -0.481053508   0.481053508   0.000000000

ATOMIC_POSITIONS (angstrom)
Si            0.0000000000       -0.0000000000       -0.0000000000
Si            1.7819378755        1.7819378755        1.7819378755



     Writing output data file ./Si/Si.save/
     NEW-OLD atomic charge density approx. for the potential

     Check: negative core charge=   -0.000002
     extrapolated charge    7.41942, renormalised to    8.00000

     total cpu time spent up to now is       14.6 secs

     Self-consistent Calculation

     iteration #  1     ecut=    30.00 Ry     beta= 0.70
     Davidson diagonalization with overlap
     ethr =  1.00E-06,  avg # of iterations =  5.5

     total cpu time spent up to now is       15.1 secs

     total energy              =     -22.56111564 Ry
     Harris-Foulkes estimate   =     -22.43811074 Ry
     estimated scf accuracy    <       0.00422778 Ry

     iteration #  2     ecut=    30.00 Ry     beta= 0.70
     Davidson diagonalization with overlap
     ethr =  5.28E-05,  avg # of iterations =  3.2

     total cpu time spent up to now is       15.4 secs

     total energy              =     -22.56774851 Ry
     Harris-Foulkes estimate   =     -22.56848755 Ry
     estimated scf accuracy    <       0.00224468 Ry

     iteration #  3     ecut=    30.00 Ry     beta= 0.70
     Davidson diagonalization with overlap
     ethr =  2.81E-05,  avg # of iterations =  1.0

     total cpu time spent up to now is       15.7 secs

     total energy              =     -22.56761864 Ry
     Harris-Foulkes estimate   =     -22.56783969 Ry
     estimated scf accuracy    <       0.00052909 Ry

     iteration #  4     ecut=    30.00 Ry     beta= 0.70
     Davidson diagonalization with overlap
     ethr =  6.61E-06,  avg # of iterations =  1.5

     total cpu time spent up to now is       16.0 secs

     total energy              =     -22.56765392 Ry
     Harris-Foulkes estimate   =     -22.56766239 Ry
     estimated scf accuracy    <       0.00001946 Ry

     iteration #  5     ecut=    30.00 Ry     beta= 0.70
     Davidson diagonalization with overlap
     ethr =  2.43E-07,  avg # of iterations =  3.5

     total cpu time spent up to now is       16.3 secs

     total energy              =     -22.56766814 Ry
     Harris-Foulkes estimate   =     -22.56767947 Ry
     estimated scf accuracy    <       0.00002658 Ry

     iteration #  6     ecut=    30.00 Ry     beta= 0.70
     Davidson diagonalization with overlap
     ethr =  2.43E-07,  avg # of iterations =  1.4

     total cpu time spent up to now is       16.6 secs

     total energy              =     -22.56766879 Ry
     Harris-Foulkes estimate   =     -22.56766968 Ry
     estimated scf accuracy    <       0.00000175 Ry

     iteration #  7     ecut=    30.00 Ry     beta= 0.70
     Davidson diagonalization with overlap
     ethr =  2.19E-08,  avg # of iterations =  3.1

     total cpu time spent up to now is       17.0 secs

     total energy              =     -22.56766924 Ry
     Harris-Foulkes estimate   =     -22.56766936 Ry
     estimated scf accuracy    <       0.00000024 Ry

     iteration #  8     ecut=    30.00 Ry     beta= 0.70
     Davidson diagonalization with overlap
     ethr =  3.04E-09,  avg # of iterations =  2.0

     total cpu time spent up to now is       17.3 secs

     total energy              =     -22.56766927 Ry
     Harris-Foulkes estimate   =     -22.56766930 Ry
     estimated scf accuracy    <       0.00000005 Ry

     iteration #  9     ecut=    30.00 Ry     beta= 0.70
     Davidson diagonalization with overlap
     ethr =  6.58E-10,  avg # of iterations =  2.0

     total cpu time spent up to now is       17.6 secs

     total energy              =     -22.56766928 Ry
     Harris-Foulkes estimate   =     -22.56766929 Ry
     estimated scf accuracy    <       0.00000001 Ry

     iteration # 10     ecut=    30.00 Ry     beta= 0.70
     Davidson diagonalization with overlap
     ethr =  1.65E-10,  avg # of iterations =  1.4

     total cpu time spent up to now is       17.8 secs

     total energy              =     -22.56766928 Ry
     Harris-Foulkes estimate   =     -22.56766928 Ry
     estimated scf accuracy    <          1.6E-09 Ry

     iteration # 11     ecut=    30.00 Ry     beta= 0.70
     Davidson diagonalization with overlap
     ethr =  2.00E-11,  avg # of iterations =  2.2

     total cpu time spent up to now is       18.1 secs

     End of self-consistent calculation

          k = 0.0000 0.0000 0.0000 (  1917 PWs)   bands (ev):

    -7.7982  -2.9340   0.3145   0.3145

          k =-0.2598 0.2598-0.2598 (  1910 PWs)   bands (ev):

    -7.4549  -3.9535  -0.0244  -0.0244

          k = 0.5197-0.5197 0.5197 (  1916 PWs)   bands (ev):

    -6.9115  -4.9903  -0.2594  -0.2594

          k = 0.0000 0.5197 0.0000 (  1924 PWs)   bands (ev):

    -7.3224  -4.1989  -0.4609  -0.4609

          k = 0.7795-0.2598 0.7795 (  1903 PWs)   bands (ev):

    -6.6765  -5.2442  -1.1573  -0.6379

          k = 0.5197 0.0000 0.5197 (  1915 PWs)   bands (ev):

    -6.9457  -4.8656  -1.1699  -0.2847

          k = 0.0000-1.0394 0.0000 (  1868 PWs)   bands (ev):

    -6.0081  -6.0081  -0.9219  -0.9219

          k =-0.5197-1.0394 0.0000 (  1888 PWs)   bands (ev):

    -5.9982  -5.9982  -1.1692  -1.1692

     highest occupied level (ev):     0.3145

!    total energy              =     -22.56766928 Ry
     Harris-Foulkes estimate   =     -22.56766928 Ry
     estimated scf accuracy    <          3.9E-12 Ry

     The total energy is the sum of the following terms:

     one-electron contribution =      -0.16917388 Ry
     hartree contribution      =       2.01868771 Ry
     xc contribution           =     -11.61956187 Ry
     ewald contribution        =     -12.79762125 Ry

     convergence has been achieved in  11 iterations

     Forces acting on atoms (cartesian axes, Ry/au):

     atom    1 type  1   force =    -0.00000000    0.00000000   -0.00000000
     atom    2 type  1   force =     0.00000000   -0.00000000    0.00000000

     Total force =     0.000000     Total SCF correction =     0.000000


     Computing stress (Cartesian axis) and pressure

          total   stress  (Ry/bohr**3)                   (kbar)     P=     -103.35
  -0.00070256  -0.00000000  -0.00000000         -103.35       -0.00       -0.00
  -0.00000000  -0.00070256   0.00000000           -0.00     -103.35        0.00
  -0.00000000   0.00000000  -0.00070256           -0.00        0.00     -103.35


     number of scf cycles    =   3
     number of bfgs steps    =   2

     enthalpy old            =     -22.5378300853 Ry
     enthalpy new            =     -22.5676692803 Ry

     CASE: enthalpy_new < enthalpy_old


     WARNING: bfgs curvature condition failed, Theta= 0.461
     new trust radius        =       0.1752286245 bohr
ibrav =      2
 celldm(1) =     12.99204669
Input lattice vectors:
    -0.46400167    -0.00000000     0.46400167
     0.00000000     0.46400167     0.46400167
    -0.46400167     0.46400167    -0.00000000
New lattice vectors in INITIAL alat:
    -0.46400167     0.00000000     0.46400167
     0.00000000     0.46400167     0.46400167
    -0.46400167     0.46400167     0.00000000
New lattice vectors in NEW alat (for information only):
    -0.50000000     0.00000000     0.50000000
     0.00000000     0.50000000     0.50000000
    -0.50000000     0.50000000     0.00000000
Discrepancy in bohr =     0.000000    0.000000    0.000000
     new conv_thr            =       0.0000000010 Ry

     new unit-cell volume =    548.24254 a.u.^3 (    81.24116 Ang^3 )
     density =      1.14809 g/cm^3

CELL_PARAMETERS (alat= 14.00000006)
  -0.464001666   0.000000000   0.464001666
   0.000000000   0.464001666   0.464001666
  -0.464001666   0.464001666   0.000000000

ATOMIC_POSITIONS (angstrom)
Si            0.0000000000       -0.0000000000       -0.0000000000
Si            1.7187737502        1.7187737502        1.7187737502



     Writing output data file ./Si/Si.save/
     NEW-OLD atomic charge density approx. for the potential

     Check: negative core charge=   -0.000003
     extrapolated charge    7.08533, renormalised to    8.00000

     total cpu time spent up to now is       20.4 secs

     Self-consistent Calculation

     iteration #  1     ecut=    30.00 Ry     beta= 0.70
     Davidson diagonalization with overlap
     ethr =  1.00E-06,  avg # of iterations =  6.2

     total cpu time spent up to now is       20.9 secs

     total energy              =     -22.59949442 Ry
     Harris-Foulkes estimate   =     -22.36860791 Ry
     estimated scf accuracy    <       0.01062356 Ry

     iteration #  2     ecut=    30.00 Ry     beta= 0.70
     Davidson diagonalization with overlap
     ethr =  1.33E-04,  avg # of iterations =  3.2

     total cpu time spent up to now is       21.2 secs

     total energy              =     -22.61459587 Ry
     Harris-Foulkes estimate   =     -22.61614549 Ry
     estimated scf accuracy    <       0.00476440 Ry

     iteration #  3     ecut=    30.00 Ry     beta= 0.70
     Davidson diagonalization with overlap
     ethr =  5.96E-05,  avg # of iterations =  1.0

     total cpu time spent up to now is       21.5 secs

     total energy              =     -22.61434981 Ry
     Harris-Foulkes estimate   =     -22.61479786 Ry
     estimated scf accuracy    <       0.00106681 Ry

     iteration #  4     ecut=    30.00 Ry     beta= 0.70
     Davidson diagonalization with overlap
     ethr =  1.33E-05,  avg # of iterations =  2.0

     total cpu time spent up to now is       21.8 secs

     total energy              =     -22.61441656 Ry
     Harris-Foulkes estimate   =     -22.61467282 Ry
     estimated scf accuracy    <       0.00059362 Ry

     iteration #  5     ecut=    30.00 Ry     beta= 0.70
     Davidson diagonalization with overlap
     ethr =  7.42E-06,  avg # of iterations =  1.2

     total cpu time spent up to now is       22.1 secs

     total energy              =     -22.61446340 Ry
     Harris-Foulkes estimate   =     -22.61446346 Ry
     estimated scf accuracy    <       0.00000852 Ry

     iteration #  6     ecut=    30.00 Ry     beta= 0.70
     Davidson diagonalization with overlap
     ethr =  1.07E-07,  avg # of iterations =  3.2

     total cpu time spent up to now is       22.4 secs

     total energy              =     -22.61447041 Ry
     Harris-Foulkes estimate   =     -22.61446929 Ry
     estimated scf accuracy    <       0.00000559 Ry

     iteration #  7     ecut=    30.00 Ry     beta= 0.70
     Davidson diagonalization with overlap
     ethr =  6.99E-08,  avg # of iterations =  1.0

     total cpu time spent up to now is       22.6 secs

     total energy              =     -22.61446921 Ry
     Harris-Foulkes estimate   =     -22.61447047 Ry
     estimated scf accuracy    <       0.00000875 Ry

     iteration #  8     ecut=    30.00 Ry     beta= 0.70
     Davidson diagonalization with overlap
     ethr =  6.99E-08,  avg # of iterations =  1.0

     total cpu time spent up to now is       22.9 secs

     total energy              =     -22.61446953 Ry
     Harris-Foulkes estimate   =     -22.61446926 Ry
     estimated scf accuracy    <       0.00000910 Ry

     iteration #  9     ecut=    30.00 Ry     beta= 0.70
     Davidson diagonalization with overlap
     ethr =  6.99E-08,  avg # of iterations =  1.0

     total cpu time spent up to now is       23.1 secs

     total energy              =     -22.61447973 Ry
     Harris-Foulkes estimate   =     -22.61446956 Ry
     estimated scf accuracy    <       0.00001310 Ry

     iteration # 10     ecut=    30.00 Ry     beta= 0.70
     Davidson diagonalization with overlap
     ethr =  6.99E-08,  avg # of iterations =  2.1

     total cpu time spent up to now is       23.4 secs

     total energy              =     -22.61446923 Ry
     Harris-Foulkes estimate   =     -22.61448252 Ry
     estimated scf accuracy    <       0.00008608 Ry

     iteration # 11     ecut=    30.00 Ry     beta= 0.70
     Davidson diagonalization with overlap
     ethr =  6.99E-08,  avg # of iterations =  2.0

     total cpu time spent up to now is       23.7 secs

     total energy              =     -22.61447429 Ry
     Harris-Foulkes estimate   =     -22.61447115 Ry
     estimated scf accuracy    <       0.00002039 Ry

     iteration # 12     ecut=    30.00 Ry     beta= 0.70
     Davidson diagonalization with overlap
     ethr =  6.99E-08,  avg # of iterations =  1.0

     total cpu time spent up to now is       23.9 secs

     total energy              =     -22.61447075 Ry
     Harris-Foulkes estimate   =     -22.61447452 Ry
     estimated scf accuracy    <       0.00003840 Ry

     iteration # 13     ecut=    30.00 Ry     beta= 0.70
     Davidson diagonalization with overlap
     ethr =  6.99E-08,  avg # of iterations =  1.0

     total cpu time spent up to now is       24.2 secs

     total energy              =     -22.61446521 Ry
     Harris-Foulkes estimate   =     -22.61447096 Ry
     estimated scf accuracy    <       0.00002043 Ry

     iteration # 14     ecut=    30.00 Ry     beta= 0.70
     Davidson diagonalization with overlap
     ethr =  6.99E-08,  avg # of iterations =  2.0

     total cpu time spent up to now is       24.5 secs

     total energy              =     -22.61446754 Ry
     Harris-Foulkes estimate   =     -22.61446760 Ry
     estimated scf accuracy    <       0.00000022 Ry

     iteration # 15     ecut=    30.00 Ry     beta= 0.70
     Davidson diagonalization with overlap
     ethr =  2.80E-09,  avg # of iterations =  3.0

     total cpu time spent up to now is       24.8 secs

     total energy              =     -22.61446763 Ry
     Harris-Foulkes estimate   =     -22.61446763 Ry
     estimated scf accuracy    <          1.5E-09 Ry

     iteration # 16     ecut=    30.00 Ry     beta= 0.70
     Davidson diagonalization with overlap
     ethr =  1.92E-11,  avg # of iterations =  3.6

     total cpu time spent up to now is       25.2 secs

     total energy              =     -22.61446763 Ry
     Harris-Foulkes estimate   =     -22.61446764 Ry
     estimated scf accuracy    <          9.8E-09 Ry

     iteration # 17     ecut=    30.00 Ry     beta= 0.70
     Davidson diagonalization with overlap
     ethr =  1.92E-11,  avg # of iterations =  2.0

     total cpu time spent up to now is       25.5 secs

     total energy              =     -22.61446763 Ry
     Harris-Foulkes estimate   =     -22.61446763 Ry
     estimated scf accuracy    <          1.6E-09 Ry

     iteration # 18     ecut=    30.00 Ry     beta= 0.70
     Davidson diagonalization with overlap
     ethr =  1.92E-11,  avg # of iterations =  1.0

     total cpu time spent up to now is       25.7 secs

     total energy              =     -22.61446763 Ry
     Harris-Foulkes estimate   =     -22.61446763 Ry
     estimated scf accuracy    <          4.2E-09 Ry

     iteration # 19     ecut=    30.00 Ry     beta= 0.70
     Davidson diagonalization with overlap
     ethr =  1.92E-11,  avg # of iterations =  1.0

     total cpu time spent up to now is       26.0 secs

     total energy              =     -22.61446763 Ry
     Harris-Foulkes estimate   =     -22.61446763 Ry
     estimated scf accuracy    <          3.8E-09 Ry

     iteration # 20     ecut=    30.00 Ry     beta= 0.70
     Davidson diagonalization with overlap
     ethr =  1.92E-11,  avg # of iterations =  1.0

     total cpu time spent up to now is       26.3 secs

     total energy              =     -22.61446763 Ry
     Harris-Foulkes estimate   =     -22.61446763 Ry
     estimated scf accuracy    <          4.0E-09 Ry

     iteration # 21     ecut=    30.00 Ry     beta= 0.70
     Davidson diagonalization with overlap
     ethr =  1.92E-11,  avg # of iterations =  1.0

     total cpu time spent up to now is       26.5 secs

     total energy              =     -22.61446763 Ry
     Harris-Foulkes estimate   =     -22.61446763 Ry
     estimated scf accuracy    <          5.2E-09 Ry

     iteration # 22     ecut=    30.00 Ry     beta= 0.70
     Davidson diagonalization with overlap
     ethr =  1.92E-11,  avg # of iterations =  1.0

     total cpu time spent up to now is       26.8 secs

     total energy              =     -22.61446763 Ry
     Harris-Foulkes estimate   =     -22.61446763 Ry
     estimated scf accuracy    <          5.1E-09 Ry

     iteration # 23     ecut=    30.00 Ry     beta= 0.70
     Davidson diagonalization with overlap
     ethr =  1.92E-11,  avg # of iterations =  2.6

     total cpu time spent up to now is       27.1 secs

     total energy              =     -22.61446763 Ry
     Harris-Foulkes estimate   =     -22.61446763 Ry
     estimated scf accuracy    <          1.1E-09 Ry

     iteration # 24     ecut=    30.00 Ry     beta= 0.70
     Davidson diagonalization with overlap
     ethr =  1.36E-11,  avg # of iterations =  1.8

     total cpu time spent up to now is       27.4 secs

     End of self-consistent calculation

          k = 0.0000 0.0000 0.0000 (  1917 PWs)   bands (ev):

    -7.5904  -1.8078   0.8552   0.8552

          k =-0.2694 0.2694-0.2694 (  1910 PWs)   bands (ev):

    -7.1994  -3.1718   0.4726   0.4726

          k = 0.5388-0.5388 0.5388 (  1916 PWs)   bands (ev):

    -6.5686  -4.4393   0.2123   0.2123

          k = 0.0000 0.5388 0.0000 (  1924 PWs)   bands (ev):

    -7.0501  -3.4396  -0.0271  -0.0271

          k = 0.8082-0.2694 0.8082 (  1903 PWs)   bands (ev):

    -6.3076  -4.6811  -0.8202  -0.2212

          k = 0.5388 0.0000 0.5388 (  1915 PWs)   bands (ev):

    -6.6164  -4.2423  -0.8424   0.1807

          k = 0.0000-1.0776 0.0000 (  1868 PWs)   bands (ev):

    -5.5488  -5.5488  -0.5411  -0.5411

          k =-0.5388-1.0776 0.0000 (  1888 PWs)   bands (ev):

    -5.5332  -5.5332  -0.8420  -0.8420

     highest occupied level (ev):     0.8552

!    total energy              =     -22.61446763 Ry
     Harris-Foulkes estimate   =     -22.61446763 Ry
     estimated scf accuracy    <          1.7E-11 Ry

     The total energy is the sum of the following terms:

     one-electron contribution =       0.45789680 Ry
     hartree contribution      =       1.87649826 Ry
     xc contribution           =     -11.68093490 Ry
     ewald contribution        =     -13.26792779 Ry

     convergence has been achieved in  24 iterations

     Forces acting on atoms (cartesian axes, Ry/au):

     atom    1 type  1   force =     0.00000000   -0.00000000    0.00000000
     atom    2 type  1   force =     0.00000000    0.00000000   -0.00000000

     Total force =     0.000000     Total SCF correction =     0.000000


     Computing stress (Cartesian axis) and pressure

          total   stress  (Ry/bohr**3)                   (kbar)     P=     -116.38
  -0.00079116  -0.00000000  -0.00000000         -116.38       -0.00       -0.00
   0.00000000  -0.00079116   0.00000000            0.00     -116.38        0.00
  -0.00000000   0.00000000  -0.00079116           -0.00        0.00     -116.38


     number of scf cycles    =   4
     number of bfgs steps    =   3

     enthalpy old            =     -22.5676692803 Ry
     enthalpy new            =     -22.6144676333 Ry

     CASE: enthalpy_new < enthalpy_old


     WARNING: bfgs curvature condition failed, Theta= 0.695
     uphill step: resetting bfgs history

     new trust radius        =       0.0926232679 bohr
ibrav =      2
 celldm(1) =     12.73507735
Input lattice vectors:
    -0.45482419     0.00000000     0.45482419
    -0.00000000     0.45482419     0.45482419
    -0.45482419     0.45482419     0.00000000
New lattice vectors in INITIAL alat:
    -0.45482419     0.00000000     0.45482419
     0.00000000     0.45482419     0.45482419
    -0.45482419     0.45482419     0.00000000
New lattice vectors in NEW alat (for information only):
    -0.50000000     0.00000000     0.50000000
     0.00000000     0.50000000     0.50000000
    -0.50000000     0.50000000     0.00000000
Discrepancy in bohr =     0.000000    0.000000    0.000000
     new conv_thr            =       0.0000000010 Ry

     new unit-cell volume =    516.35070 a.u.^3 (    76.51528 Ang^3 )
     density =      1.21900 g/cm^3

CELL_PARAMETERS (alat= 14.00000006)
  -0.454824189   0.000000000   0.454824189
   0.000000000   0.454824189   0.454824189
  -0.454824189   0.454824189   0.000000000

ATOMIC_POSITIONS (angstrom)
Si            0.0000000000       -0.0000000000       -0.0000000000
Si            1.6847781700        1.6847781700        1.6847781700



     Writing output data file ./Si/Si.save/
     NEW-OLD atomic charge density approx. for the potential

     Check: negative core charge=   -0.000003
     extrapolated charge    7.50596, renormalised to    8.00000

     total cpu time spent up to now is       29.6 secs

     Self-consistent Calculation

     iteration #  1     ecut=    30.00 Ry     beta= 0.70
     Davidson diagonalization with overlap
     ethr =  1.00E-06,  avg # of iterations =  5.5

     total cpu time spent up to now is       30.0 secs

     total energy              =     -22.63616308 Ry
     Harris-Foulkes estimate   =     -22.49593958 Ry
     estimated scf accuracy    <       0.00266185 Ry

     iteration #  2     ecut=    30.00 Ry     beta= 0.70
     Davidson diagonalization with overlap
     ethr =  3.33E-05,  avg # of iterations =  3.2

     total cpu time spent up to now is       30.3 secs

     total energy              =     -22.64048649 Ry
     Harris-Foulkes estimate   =     -22.64094555 Ry
     estimated scf accuracy    <       0.00146891 Ry

     iteration #  3     ecut=    30.00 Ry     beta= 0.70
     Davidson diagonalization with overlap
     ethr =  1.84E-05,  avg # of iterations =  1.0

     total cpu time spent up to now is       30.5 secs

     total energy              =     -22.64037130 Ry
     Harris-Foulkes estimate   =     -22.64054002 Ry
     estimated scf accuracy    <       0.00036283 Ry

     iteration #  4     ecut=    30.00 Ry     beta= 0.70
     Davidson diagonalization with overlap
     ethr =  4.54E-06,  avg # of iterations =  2.0

     total cpu time spent up to now is       30.8 secs

     total energy              =     -22.64041900 Ry
     Harris-Foulkes estimate   =     -22.64044238 Ry
     estimated scf accuracy    <       0.00005630 Ry

     iteration #  5     ecut=    30.00 Ry     beta= 0.70
     Davidson diagonalization with overlap
     ethr =  7.04E-07,  avg # of iterations =  1.6

     total cpu time spent up to now is       31.1 secs

     total energy              =     -22.64042441 Ry
     Harris-Foulkes estimate   =     -22.64042446 Ry
     estimated scf accuracy    <       0.00000132 Ry

     iteration #  6     ecut=    30.00 Ry     beta= 0.70
     Davidson diagonalization with overlap
     ethr =  1.65E-08,  avg # of iterations =  3.2

     total cpu time spent up to now is       31.5 secs

     total energy              =     -22.64042498 Ry
     Harris-Foulkes estimate   =     -22.64042501 Ry
     estimated scf accuracy    <       0.00000092 Ry

     iteration #  7     ecut=    30.00 Ry     beta= 0.70
     Davidson diagonalization with overlap
     ethr =  1.14E-08,  avg # of iterations =  1.0

     total cpu time spent up to now is       31.7 secs

     total energy              =     -22.64042467 Ry
     Harris-Foulkes estimate   =     -22.64042498 Ry
     estimated scf accuracy    <       0.00000083 Ry

     iteration #  8     ecut=    30.00 Ry     beta= 0.70
     Davidson diagonalization with overlap
     ethr =  1.04E-08,  avg # of iterations =  1.0

     total cpu time spent up to now is       32.0 secs

     total energy              =     -22.64042471 Ry
     Harris-Foulkes estimate   =     -22.64042471 Ry
     estimated scf accuracy    <       0.00000004 Ry

     iteration #  9     ecut=    30.00 Ry     beta= 0.70
     Davidson diagonalization with overlap
     ethr =  4.58E-10,  avg # of iterations =  2.2

     total cpu time spent up to now is       32.3 secs

     total energy              =     -22.64042471 Ry
     Harris-Foulkes estimate   =     -22.64042472 Ry
     estimated scf accuracy    <       0.00000002 Ry

     iteration # 10     ecut=    30.00 Ry     beta= 0.70
     Davidson diagonalization with overlap
     ethr =  2.20E-10,  avg # of iterations =  1.0

     total cpu time spent up to now is       32.6 secs

     total energy              =     -22.64042472 Ry
     Harris-Foulkes estimate   =     -22.64042471 Ry
     estimated scf accuracy    <          2.9E-09 Ry

     iteration # 11     ecut=    30.00 Ry     beta= 0.70
     Davidson diagonalization with overlap
     ethr =  3.63E-11,  avg # of iterations =  1.4

     total cpu time spent up to now is       32.8 secs

     total energy              =     -22.64042471 Ry
     Harris-Foulkes estimate   =     -22.64042472 Ry
     estimated scf accuracy    <          2.5E-09 Ry

     iteration # 12     ecut=    30.00 Ry     beta= 0.70
     Davidson diagonalization with overlap
     ethr =  3.19E-11,  avg # of iterations =  1.0

     total cpu time spent up to now is       33.1 secs

     End of self-consistent calculation

          k = 0.0000 0.0000 0.0000 (  1917 PWs)   bands (ev):

    -7.4698  -1.1251   1.1807   1.1807

          k =-0.2748 0.2748-0.2748 (  1910 PWs)   bands (ev):

    -7.0509  -2.7281   0.7723   0.7723

          k = 0.5497-0.5497 0.5497 (  1916 PWs)   bands (ev):

    -6.3672  -4.1330   0.4976   0.4976

          k = 0.0000 0.5497 0.0000 (  1924 PWs)   bands (ev):

    -6.8919  -2.9998   0.2345   0.2345

          k = 0.8245-0.2748 0.8245 (  1903 PWs)   bands (ev):

    -6.0920  -4.3566  -0.6162   0.0306

          k = 0.5497 0.0000 0.5497 (  1915 PWs)   bands (ev):

    -6.4243  -3.8837  -0.6451   0.4618

          k = 0.0000-1.0993 0.0000 (  1868 PWs)   bands (ev):

    -5.2817  -5.2817  -0.3106  -0.3106

          k =-0.5497-1.0993 0.0000 (  1888 PWs)   bands (ev):

    -5.2619  -5.2619  -0.6455  -0.6455

     highest occupied level (ev):     1.1807

!    total energy              =     -22.64042472 Ry
     Harris-Foulkes estimate   =     -22.64042472 Ry
     estimated scf accuracy    <          2.8E-10 Ry

     The total energy is the sum of the following terms:

     one-electron contribution =       0.81288506 Ry
     hartree contribution      =       1.80083493 Ry
     xc contribution           =     -11.71849567 Ry
     ewald contribution        =     -13.53564903 Ry

     convergence has been achieved in  12 iterations

     Forces acting on atoms (cartesian axes, Ry/au):

     atom    1 type  1   force =     0.00000000    0.00000000    0.00000000
     atom    2 type  1   force =     0.00000000    0.00000000    0.00000000

     Total force =     0.000000     Total SCF correction =     0.000000


     Computing stress (Cartesian axis) and pressure

          total   stress  (Ry/bohr**3)                   (kbar)     P=     -123.03
  -0.00083635  -0.00000000  -0.00000000         -123.03       -0.00       -0.00
  -0.00000000  -0.00083635   0.00000000           -0.00     -123.03        0.00
  -0.00000000   0.00000000  -0.00083635           -0.00        0.00     -123.03


     number of scf cycles    =   5
     number of bfgs steps    =   4

     enthalpy old            =     -22.6144676333 Ry
     enthalpy new            =     -22.6404247150 Ry

     CASE: enthalpy_new < enthalpy_old


     WARNING: bfgs curvature condition failed, Theta= 0.788
     new trust radius        =       0.1375540450 bohr
ibrav =      2
 celldm(1) =     12.34962333
Input lattice vectors:
    -0.44105797    -0.00000000     0.44105797
     0.00000000     0.44105797     0.44105797
    -0.44105797     0.44105797    -0.00000000
New lattice vectors in INITIAL alat:
    -0.44105797     0.00000000     0.44105797
     0.00000000     0.44105797     0.44105797
    -0.44105797     0.44105797     0.00000000
New lattice vectors in NEW alat (for information only):
    -0.50000000     0.00000000     0.50000000
     0.00000000     0.50000000     0.50000000
    -0.50000000     0.50000000     0.00000000
Discrepancy in bohr =     0.000000    0.000000    0.000000
     new conv_thr            =       0.0000000010 Ry

     new unit-cell volume =    470.87013 a.u.^3 (    69.77575 Ang^3 )
     density =      1.33675 g/cm^3

CELL_PARAMETERS (alat= 14.00000006)
  -0.441057974   0.000000000   0.441057974
   0.000000000   0.441057974   0.441057974
  -0.441057974   0.441057974   0.000000000

ATOMIC_POSITIONS (angstrom)
Si            0.0000000000       -0.0000000000       -0.0000000000
Si            1.6337847997        1.6337847997        1.6337847997



     Writing output data file ./Si/Si.save/
     NEW-OLD atomic charge density approx. for the potential

     Check: negative core charge=   -0.000003
     extrapolated charge    7.22740, renormalised to    8.00000

     total cpu time spent up to now is       35.4 secs

     Self-consistent Calculation

     iteration #  1     ecut=    30.00 Ry     beta= 0.70
     Davidson diagonalization with overlap
     ethr =  1.00E-06,  avg # of iterations =  5.8

     total cpu time spent up to now is       35.8 secs

     total energy              =     -22.67004784 Ry
     Harris-Foulkes estimate   =     -22.42470594 Ry
     estimated scf accuracy    <       0.00659388 Ry

     iteration #  2     ecut=    30.00 Ry     beta= 0.70
     Davidson diagonalization with overlap
     ethr =  8.24E-05,  avg # of iterations =  3.2

     total cpu time spent up to now is       36.1 secs

     total energy              =     -22.67992752 Ry
     Harris-Foulkes estimate   =     -22.68091944 Ry
     estimated scf accuracy    <       0.00321132 Ry

     iteration #  3     ecut=    30.00 Ry     beta= 0.70
     Davidson diagonalization with overlap
     ethr =  4.01E-05,  avg # of iterations =  1.0

     total cpu time spent up to now is       36.3 secs

     total energy              =     -22.67971219 Ry
     Harris-Foulkes estimate   =     -22.68005223 Ry
     estimated scf accuracy    <       0.00075519 Ry

     iteration #  4     ecut=    30.00 Ry     beta= 0.70
     Davidson diagonalization with overlap
     ethr =  9.44E-06,  avg # of iterations =  2.0

     total cpu time spent up to now is       36.6 secs

     total energy              =     -22.67979983 Ry
     Harris-Foulkes estimate   =     -22.67986470 Ry
     estimated scf accuracy    <       0.00015412 Ry

     iteration #  5     ecut=    30.00 Ry     beta= 0.70
     Davidson diagonalization with overlap
     ethr =  1.93E-06,  avg # of iterations =  1.6

     total cpu time spent up to now is       36.9 secs

     total energy              =     -22.67981452 Ry
     Harris-Foulkes estimate   =     -22.67981442 Ry
     estimated scf accuracy    <       0.00000224 Ry

     iteration #  6     ecut=    30.00 Ry     beta= 0.70
     Davidson diagonalization with overlap
     ethr =  2.80E-08,  avg # of iterations =  3.2

     total cpu time spent up to now is       37.3 secs

     total energy              =     -22.67981698 Ry
     Harris-Foulkes estimate   =     -22.67981608 Ry
     estimated scf accuracy    <       0.00000233 Ry

     iteration #  7     ecut=    30.00 Ry     beta= 0.70
     Davidson diagonalization with overlap
     ethr =  2.80E-08,  avg # of iterations =  1.0

     total cpu time spent up to now is       37.5 secs

     total energy              =     -22.67981484 Ry
     Harris-Foulkes estimate   =     -22.67981703 Ry
     estimated scf accuracy    <       0.00000522 Ry

     iteration #  8     ecut=    30.00 Ry     beta= 0.70
     Davidson diagonalization with overlap
     ethr =  2.80E-08,  avg # of iterations =  2.0

     total cpu time spent up to now is       37.8 secs

     total energy              =     -22.67981538 Ry
     Harris-Foulkes estimate   =     -22.67981540 Ry
     estimated scf accuracy    <       0.00000039 Ry

     iteration #  9     ecut=    30.00 Ry     beta= 0.70
     Davidson diagonalization with overlap
     ethr =  4.86E-09,  avg # of iterations =  1.2

     total cpu time spent up to now is       38.1 secs

     total energy              =     -22.67981541 Ry
     Harris-Foulkes estimate   =     -22.67981540 Ry
     estimated scf accuracy    <       0.00000006 Ry

     iteration # 10     ecut=    30.00 Ry     beta= 0.70
     Davidson diagonalization with overlap
     ethr =  7.81E-10,  avg # of iterations =  1.5

     total cpu time spent up to now is       38.3 secs

     total energy              =     -22.67981543 Ry
     Harris-Foulkes estimate   =     -22.67981541 Ry
     estimated scf accuracy    <       0.00000008 Ry

     iteration # 11     ecut=    30.00 Ry     beta= 0.70
     Davidson diagonalization with overlap
     ethr =  7.81E-10,  avg # of iterations =  1.6

     total cpu time spent up to now is       38.6 secs

     total energy              =     -22.67981543 Ry
     Harris-Foulkes estimate   =     -22.67981543 Ry
     estimated scf accuracy    <       0.00000039 Ry

     iteration # 12     ecut=    30.00 Ry     beta= 0.70
     Davidson diagonalization with overlap
     ethr =  7.81E-10,  avg # of iterations =  1.0

     total cpu time spent up to now is       38.9 secs

     total energy              =     -22.67981538 Ry
     Harris-Foulkes estimate   =     -22.67981543 Ry
     estimated scf accuracy    <       0.00000028 Ry

     iteration # 13     ecut=    30.00 Ry     beta= 0.70
     Davidson diagonalization with overlap
     ethr =  7.81E-10,  avg # of iterations =  2.4

     total cpu time spent up to now is       39.2 secs

     total energy              =     -22.67981540 Ry
     Harris-Foulkes estimate   =     -22.67981541 Ry
     estimated scf accuracy    <       0.00000007 Ry

     iteration # 14     ecut=    30.00 Ry     beta= 0.70
     Davidson diagonalization with overlap
     ethr =  7.81E-10,  avg # of iterations =  1.0

     total cpu time spent up to now is       39.4 secs

     total energy              =     -22.67981541 Ry
     Harris-Foulkes estimate   =     -22.67981541 Ry
     estimated scf accuracy    <          2.7E-09 Ry

     iteration # 15     ecut=    30.00 Ry     beta= 0.70
     Davidson diagonalization with overlap
     ethr =  3.35E-11,  avg # of iterations =  1.6

     total cpu time spent up to now is       39.7 secs

     End of self-consistent calculation

          k = 0.0000 0.0000 0.0000 (  1917 PWs)   bands (ev):

    -7.2748   0.0146   1.7212   1.7212

          k =-0.2834 0.2834-0.2834 (  1910 PWs)   bands (ev):

    -6.8107  -2.0370   1.2708   1.2708

          k = 0.5668-0.5668 0.5668 (  1916 PWs)   bands (ev):

    -6.0389  -3.6621   0.9732   0.9732

          k = 0.0000 0.5668 0.0000 (  1924 PWs)   bands (ev):

    -6.6362  -2.2968   0.6695   0.6695

          k = 0.8502-0.2834 0.8502 (  1903 PWs)   bands (ev):

    -5.7425  -3.8391  -0.2755   0.4504

          k = 0.5668 0.0000 0.5668 (  1915 PWs)   bands (ev):

    -6.1131  -3.3127  -0.3168   0.9300

          k = 0.0000-1.1336 0.0000 (  1868 PWs)   bands (ev):

    -4.8509  -4.8509   0.0742   0.0742

          k =-0.5668-1.1336-0.0000 (  1888 PWs)   bands (ev):

    -4.8229  -4.8229  -0.3199  -0.3199

     highest occupied level (ev):     1.7212

!    total energy              =     -22.67981541 Ry
     Harris-Foulkes estimate   =     -22.67981541 Ry
     estimated scf accuracy    <          1.9E-10 Ry

     The total energy is the sum of the following terms:

     one-electron contribution =       1.37117280 Ry
     hartree contribution      =       1.68877421 Ry
     xc contribution           =     -11.78164137 Ry
     ewald contribution        =     -13.95812105 Ry

     convergence has been achieved in  15 iterations

     Forces acting on atoms (cartesian axes, Ry/au):

     atom    1 type  1   force =    -0.00000000   -0.00000000    0.00000000
     atom    2 type  1   force =     0.00000000   -0.00000000   -0.00000000

     Total force =     0.000000     Total SCF correction =     0.000000


     Computing stress (Cartesian axis) and pressure

          total   stress  (Ry/bohr**3)                   (kbar)     P=     -131.42
  -0.00089336   0.00000000   0.00000000         -131.42        0.00        0.00
   0.00000000  -0.00089336   0.00000000            0.00     -131.42        0.00
   0.00000000   0.00000000  -0.00089336            0.00        0.00     -131.42


     number of scf cycles    =   6
     number of bfgs steps    =   5

     enthalpy old            =     -22.6404247150 Ry
     enthalpy new            =     -22.6798154074 Ry

     CASE: enthalpy_new < enthalpy_old


     WARNING: bfgs curvature condition failed, Theta= 0.580
     uphill step: resetting bfgs history

     new trust radius        =       0.0969280230 bohr
ibrav =      2
 celldm(1) =     12.07380540
Input lattice vectors:
    -0.43120733    -0.00000000     0.43120733
     0.00000000     0.43120733     0.43120733
    -0.43120733     0.43120733     0.00000000
New lattice vectors in INITIAL alat:
    -0.43120733     0.00000000     0.43120733
     0.00000000     0.43120733     0.43120733
    -0.43120733     0.43120733     0.00000000
New lattice vectors in NEW alat (for information only):
    -0.50000000     0.00000000     0.50000000
     0.00000000     0.50000000     0.50000000
    -0.50000000     0.50000000     0.00000000
Discrepancy in bohr =     0.000000    0.000000    0.000000
     new conv_thr            =       0.0000000010 Ry

     new unit-cell volume =    440.02011 a.u.^3 (    65.20425 Ang^3 )
     density =      1.43047 g/cm^3

CELL_PARAMETERS (alat= 14.00000006)
  -0.431207334   0.000000000   0.431207334
   0.000000000   0.431207334   0.431207334
  -0.431207334   0.431207334   0.000000000

ATOMIC_POSITIONS (angstrom)
Si            0.0000000000       -0.0000000000       -0.0000000000
Si            1.5972956584        1.5972956584        1.5972956584



     Writing output data file ./Si/Si.save/
     NEW-OLD atomic charge density approx. for the potential

     Check: negative core charge=   -0.000003
     extrapolated charge    7.43919, renormalised to    8.00000

     total cpu time spent up to now is       42.0 secs

     Self-consistent Calculation

     iteration #  1     ecut=    30.00 Ry     beta= 0.70
     Davidson diagonalization with overlap
     ethr =  1.00E-06,  avg # of iterations =  5.5

     total cpu time spent up to now is       42.5 secs

     total energy              =     -22.70282502 Ry
     Harris-Foulkes estimate   =     -22.50722082 Ry
     estimated scf accuracy    <       0.00315103 Ry

     iteration #  2     ecut=    30.00 Ry     beta= 0.70
     Davidson diagonalization with overlap
     ethr =  3.94E-05,  avg # of iterations =  3.2

     total cpu time spent up to now is       42.8 secs

     total energy              =     -22.70788113 Ry
     Harris-Foulkes estimate   =     -22.70839838 Ry
     estimated scf accuracy    <       0.00172087 Ry

     iteration #  3     ecut=    30.00 Ry     beta= 0.70
     Davidson diagonalization with overlap
     ethr =  2.15E-05,  avg # of iterations =  1.0

     total cpu time spent up to now is       43.1 secs

     total energy              =     -22.70774340 Ry
     Harris-Foulkes estimate   =     -22.70793680 Ry
     estimated scf accuracy    <       0.00042489 Ry

     iteration #  4     ecut=    30.00 Ry     beta= 0.70
     Davidson diagonalization with overlap
     ethr =  5.31E-06,  avg # of iterations =  2.0

     total cpu time spent up to now is       43.4 secs

     total energy              =     -22.70779674 Ry
     Harris-Foulkes estimate   =     -22.70781517 Ry
     estimated scf accuracy    <       0.00004293 Ry

     iteration #  5     ecut=    30.00 Ry     beta= 0.70
     Davidson diagonalization with overlap
     ethr =  5.37E-07,  avg # of iterations =  2.1

     total cpu time spent up to now is       43.7 secs

     total energy              =     -22.70780208 Ry
     Harris-Foulkes estimate   =     -22.70780223 Ry
     estimated scf accuracy    <       0.00000043 Ry

     iteration #  6     ecut=    30.00 Ry     beta= 0.70
     Davidson diagonalization with overlap
     ethr =  5.32E-09,  avg # of iterations =  3.0

     total cpu time spent up to now is       44.0 secs

     total energy              =     -22.70780247 Ry
     Harris-Foulkes estimate   =     -22.70780256 Ry
     estimated scf accuracy    <       0.00000021 Ry

     iteration #  7     ecut=    30.00 Ry     beta= 0.70
     Davidson diagonalization with overlap
     ethr =  2.64E-09,  avg # of iterations =  2.0

     total cpu time spent up to now is       44.3 secs

     total energy              =     -22.70780250 Ry
     Harris-Foulkes estimate   =     -22.70780250 Ry
     estimated scf accuracy    <          8.0E-09 Ry

     iteration #  8     ecut=    30.00 Ry     beta= 0.70
     Davidson diagonalization with overlap
     ethr =  1.00E-10,  avg # of iterations =  3.1

     total cpu time spent up to now is       44.8 secs

     total energy              =     -22.70780249 Ry
     Harris-Foulkes estimate   =     -22.70780251 Ry
     estimated scf accuracy    <       0.00000003 Ry

     iteration #  9     ecut=    30.00 Ry     beta= 0.70
     Davidson diagonalization with overlap
     ethr =  1.00E-10,  avg # of iterations =  2.0

     total cpu time spent up to now is       45.1 secs

     End of self-consistent calculation

          k = 0.0000 0.0000 0.0000 (  1917 PWs)   bands (ev):

    -7.1232   0.9253   2.1511   2.1511

          k =-0.2899 0.2899-0.2899 (  1910 PWs)   bands (ev):

    -6.6241  -1.5261   1.6680   1.6680

          k = 0.5798-0.5798 0.5798 (  1916 PWs)   bands (ev):

    -5.7819  -3.3168   1.3533   1.3533

          k = 0.0000 0.5798 0.0000 (  1924 PWs)   bands (ev):

    -6.4379  -1.7600   1.0162   1.0162

          k = 0.8697-0.2899 0.8697 (  1903 PWs)   bands (ev):

    -5.4706  -3.4440  -0.0026   0.7857

          k = 0.5798 0.0000 0.5798 (  1915 PWs)   bands (ev):

    -5.8711  -2.8777  -0.0550   1.3037

          k = 0.0000-1.1595 0.0000 (  1868 PWs)   bands (ev):

    -4.5179  -4.5179   0.3820   0.3820

          k =-0.5798-1.1595 0.0000 (  1888 PWs)   bands (ev):

    -4.4820  -4.4820  -0.0615  -0.0615

     highest occupied level (ev):     2.1511

!    total energy              =     -22.70780250 Ry
     Harris-Foulkes estimate   =     -22.70780250 Ry
     estimated scf accuracy    <          1.4E-10 Ry

     The total energy is the sum of the following terms:

     one-electron contribution =       1.79173549 Ry
     hartree contribution      =       1.60994812 Ry
     xc contribution           =     -11.83250120 Ry
     ewald contribution        =     -14.27698491 Ry

     convergence has been achieved in   9 iterations

     Forces acting on atoms (cartesian axes, Ry/au):

     atom    1 type  1   force =    -0.00000000    0.00000000    0.00000000
     atom    2 type  1   force =    -0.00000000    0.00000000   -0.00000000

     Total force =     0.000000     Total SCF correction =     0.000000


     Computing stress (Cartesian axis) and pressure

          total   stress  (Ry/bohr**3)                   (kbar)     P=     -135.07
  -0.00091819   0.00000000   0.00000000         -135.07        0.00        0.00
  -0.00000000  -0.00091819   0.00000000           -0.00     -135.07        0.00
  -0.00000000   0.00000000  -0.00091819           -0.00        0.00     -135.07


     number of scf cycles    =   7
     number of bfgs steps    =   6

     enthalpy old            =     -22.6798154074 Ry
     enthalpy new            =     -22.7078024966 Ry

     CASE: enthalpy_new < enthalpy_old


     WARNING: bfgs curvature condition failed, Theta= 0.814
     new trust radius        =       0.1437592650 bohr
ibrav =      2
 celldm(1) =     11.66007849
Input lattice vectors:
    -0.41643137     0.00000000     0.41643137
    -0.00000000     0.41643137     0.41643137
    -0.41643137     0.41643137     0.00000000
New lattice vectors in INITIAL alat:
    -0.41643137     0.00000000     0.41643137
     0.00000000     0.41643137     0.41643137
    -0.41643137     0.41643137     0.00000000
New lattice vectors in NEW alat (for information only):
    -0.50000000     0.00000000     0.50000000
     0.00000000     0.50000000     0.50000000
    -0.50000000     0.50000000     0.00000000
Discrepancy in bohr =     0.000000    0.000000    0.000000
     new conv_thr            =       0.0000000010 Ry

     new unit-cell volume =    396.31858 a.u.^3 (    58.72835 Ang^3 )
     density =      1.58820 g/cm^3

CELL_PARAMETERS (alat= 14.00000006)
  -0.416431373   0.000000000   0.416431373
   0.000000000   0.416431373   0.416431373
  -0.416431373   0.416431373   0.000000000

ATOMIC_POSITIONS (angstrom)
Si            0.0000000000       -0.0000000000       -0.0000000000
Si            1.5425619464        1.5425619464        1.5425619464



     Writing output data file ./Si/Si.save/
     NEW-OLD atomic charge density approx. for the potential

     Check: negative core charge=   -0.000001
     extrapolated charge    7.11797, renormalised to    8.00000

     total cpu time spent up to now is       47.4 secs

     Self-consistent Calculation

     iteration #  1     ecut=    30.00 Ry     beta= 0.70
     Davidson diagonalization with overlap
     ethr =  1.00E-06,  avg # of iterations =  5.8

     total cpu time spent up to now is       47.8 secs

     total energy              =     -22.73645605 Ry
     Harris-Foulkes estimate   =     -22.39617476 Ry
     estimated scf accuracy    <       0.00800666 Ry

     iteration #  2     ecut=    30.00 Ry     beta= 0.70
     Davidson diagonalization with overlap
     ethr =  1.00E-04,  avg # of iterations =  3.2

     total cpu time spent up to now is       48.1 secs

     total energy              =     -22.74811637 Ry
     Harris-Foulkes estimate   =     -22.74926205 Ry
     estimated scf accuracy    <       0.00382089 Ry

     iteration #  3     ecut=    30.00 Ry     beta= 0.70
     Davidson diagonalization with overlap
     ethr =  4.78E-05,  avg # of iterations =  1.0

     total cpu time spent up to now is       48.3 secs

     total energy              =     -22.74786262 Ry
     Harris-Foulkes estimate   =     -22.74825928 Ry
     estimated scf accuracy    <       0.00088955 Ry

     iteration #  4     ecut=    30.00 Ry     beta= 0.70
     Davidson diagonalization with overlap
     ethr =  1.11E-05,  avg # of iterations =  2.0

     total cpu time spent up to now is       48.6 secs

     total energy              =     -22.74797048 Ry
     Harris-Foulkes estimate   =     -22.74800324 Ry
     estimated scf accuracy    <       0.00007720 Ry

     iteration #  5     ecut=    30.00 Ry     beta= 0.70
     Davidson diagonalization with overlap
     ethr =  9.65E-07,  avg # of iterations =  1.9

     total cpu time spent up to now is       48.9 secs

     total energy              =     -22.74798031 Ry
     Harris-Foulkes estimate   =     -22.74798055 Ry
     estimated scf accuracy    <       0.00000076 Ry

     iteration #  6     ecut=    30.00 Ry     beta= 0.70
     Davidson diagonalization with overlap
     ethr =  9.47E-09,  avg # of iterations =  3.2

     total cpu time spent up to now is       49.2 secs

     total energy              =     -22.74798097 Ry
     Harris-Foulkes estimate   =     -22.74798125 Ry
     estimated scf accuracy    <       0.00000076 Ry

     iteration #  7     ecut=    30.00 Ry     beta= 0.70
     Davidson diagonalization with overlap
     ethr =  9.47E-09,  avg # of iterations =  1.9

     total cpu time spent up to now is       49.5 secs

     total energy              =     -22.74798105 Ry
     Harris-Foulkes estimate   =     -22.74798105 Ry
     estimated scf accuracy    <          7.0E-09 Ry

     iteration #  8     ecut=    30.00 Ry     beta= 0.70
     Davidson diagonalization with overlap
     ethr =  8.79E-11,  avg # of iterations =  3.5

     total cpu time spent up to now is       49.8 secs

     total energy              =     -22.74798105 Ry
     Harris-Foulkes estimate   =     -22.74798106 Ry
     estimated scf accuracy    <       0.00000003 Ry

     iteration #  9     ecut=    30.00 Ry     beta= 0.70
     Davidson diagonalization with overlap
     ethr =  8.79E-11,  avg # of iterations =  2.1

     total cpu time spent up to now is       50.1 secs

     End of self-consistent calculation

          k = 0.0000 0.0000 0.0000 (  1917 PWs)   bands (ev):

    -6.8724   2.4626   2.8744   2.8744

          k =-0.3002 0.3002-0.3002 (  1910 PWs)   bands (ev):

    -6.3161  -0.7344   2.3378   2.3378

          k = 0.6003-0.6003 0.6003 (  1916 PWs)   bands (ev):

    -5.3546  -2.7830   1.9960   1.9960

          k = 0.0000 0.6003 0.0000 (  1924 PWs)   bands (ev):

    -6.1111  -0.8960   1.6010   1.6010

          k = 0.9005-0.3002 0.9005 (  1903 PWs)   bands (ev):

    -5.0217  -2.8073   0.4608   1.3525

          k = 0.6003 0.0000 0.6003 (  1915 PWs)   bands (ev):

    -5.4719  -2.1780   0.3871   1.9348

          k = 0.0000-1.2007 0.0000 (  1868 PWs)   bands (ev):

    -3.9726  -3.9726   0.9034   0.9034

          k =-0.6003-1.2007 0.0000 (  1888 PWs)   bands (ev):

    -3.9211  -3.9211   0.3723   0.3723

     highest occupied level (ev):     2.8744

!    total energy              =     -22.74798105 Ry
     Harris-Foulkes estimate   =     -22.74798105 Ry
     estimated scf accuracy    <          9.1E-10 Ry

     The total energy is the sum of the following terms:

     one-electron contribution =       2.46031694 Ry
     hartree contribution      =       1.49413618 Ry
     xc contribution           =     -11.91886839 Ry
     ewald contribution        =     -14.78356578 Ry

     convergence has been achieved in   9 iterations

     Forces acting on atoms (cartesian axes, Ry/au):

     atom    1 type  1   force =    -0.00000000   -0.00000000   -0.00000000
     atom    2 type  1   force =     0.00000000    0.00000000    0.00000000

     Total force =     0.000000     Total SCF correction =     0.000000


     Computing stress (Cartesian axis) and pressure

          total   stress  (Ry/bohr**3)                   (kbar)     P=     -133.66
  -0.00090857   0.00000000   0.00000000         -133.66        0.00        0.00
   0.00000000  -0.00090857  -0.00000000            0.00     -133.66       -0.00
   0.00000000  -0.00000000  -0.00090857            0.00       -0.00     -133.66


     number of scf cycles    =   8
     number of bfgs steps    =   7

     enthalpy old            =     -22.7078024966 Ry
     enthalpy new            =     -22.7479810529 Ry

     CASE: enthalpy_new < enthalpy_old

     new trust radius        =       0.2119120994 bohr
ibrav =      2
 celldm(1) =     11.03948814
Input lattice vectors:
    -0.39426743    -0.00000000     0.39426743
     0.00000000     0.39426743     0.39426743
    -0.39426743     0.39426743    -0.00000000
New lattice vectors in INITIAL alat:
    -0.39426743     0.00000000     0.39426743
     0.00000000     0.39426743     0.39426743
    -0.39426743     0.39426743     0.00000000
New lattice vectors in NEW alat (for information only):
    -0.50000000     0.00000000     0.50000000
     0.00000000     0.50000000     0.50000000
    -0.50000000     0.50000000     0.00000000
Discrepancy in bohr =     0.000000    0.000000    0.000000
     new conv_thr            =       0.0000000010 Ry

     new unit-cell volume =    336.34643 a.u.^3 (    49.84140 Ang^3 )
     density =      1.87139 g/cm^3

CELL_PARAMETERS (alat= 14.00000006)
  -0.394267432   0.000000000   0.394267432
   0.000000000   0.394267432   0.394267432
  -0.394267432   0.394267432   0.000000000

ATOMIC_POSITIONS (angstrom)
Si            0.0000000000       -0.0000000000       -0.0000000000
Si            1.4604613785        1.4604613785        1.4604613785



     Writing output data file ./Si/Si.save/
     NEW-OLD atomic charge density approx. for the potential
     extrapolated charge    6.57376, renormalised to    8.00000

     total cpu time spent up to now is       52.8 secs

     Self-consistent Calculation

     iteration #  1     ecut=    30.00 Ry     beta= 0.70
     Davidson diagonalization with overlap
     ethr =  1.00E-06,  avg # of iterations =  6.0

     total cpu time spent up to now is       53.4 secs

     total energy              =     -22.77035897 Ry
     Harris-Foulkes estimate   =     -22.14143606 Ry
     estimated scf accuracy    <       0.02238917 Ry

     iteration #  2     ecut=    30.00 Ry     beta= 0.70
     Davidson diagonalization with overlap
     ethr =  2.80E-04,  avg # of iterations =  3.2

     total cpu time spent up to now is       53.8 secs

     total energy              =     -22.79794403 Ry
     Harris-Foulkes estimate   =     -22.80054397 Ry
     estimated scf accuracy    <       0.00865837 Ry

     iteration #  3     ecut=    30.00 Ry     beta= 0.70
     Davidson diagonalization with overlap
     ethr =  1.08E-04,  avg # of iterations =  1.0

     total cpu time spent up to now is       54.0 secs

     total energy              =     -22.79750142 Ry
     Harris-Foulkes estimate   =     -22.79828891 Ry
     estimated scf accuracy    <       0.00182220 Ry

     iteration #  4     ecut=    30.00 Ry     beta= 0.70
     Davidson diagonalization with overlap
     ethr =  2.28E-05,  avg # of iterations =  2.0

     total cpu time spent up to now is       54.3 secs

     total energy              =     -22.79771861 Ry
     Harris-Foulkes estimate   =     -22.79776243 Ry
     estimated scf accuracy    <       0.00010454 Ry

     iteration #  5     ecut=    30.00 Ry     beta= 0.70
     Davidson diagonalization with overlap
     ethr =  1.31E-06,  avg # of iterations =  2.1

     total cpu time spent up to now is       54.7 secs

     total energy              =     -22.79773662 Ry
     Harris-Foulkes estimate   =     -22.79773721 Ry
     estimated scf accuracy    <       0.00000175 Ry

     iteration #  6     ecut=    30.00 Ry     beta= 0.70
     Davidson diagonalization with overlap
     ethr =  2.18E-08,  avg # of iterations =  2.9

     total cpu time spent up to now is       55.0 secs

     total energy              =     -22.79773761 Ry
     Harris-Foulkes estimate   =     -22.79773765 Ry
     estimated scf accuracy    <       0.00000013 Ry

     iteration #  7     ecut=    30.00 Ry     beta= 0.70
     Davidson diagonalization with overlap
     ethr =  1.58E-09,  avg # of iterations =  2.0

     total cpu time spent up to now is       55.3 secs

     total energy              =     -22.79773763 Ry
     Harris-Foulkes estimate   =     -22.79773763 Ry
     estimated scf accuracy    <          7.4E-09 Ry

     iteration #  8     ecut=    30.00 Ry     beta= 0.70
     Davidson diagonalization with overlap
     ethr =  9.24E-11,  avg # of iterations =  2.8

     total cpu time spent up to now is       55.6 secs

     End of self-consistent calculation

          k = 0.0000 0.0000 0.0000 (  1917 PWs)   bands (ev):

    -6.4301   4.1695   4.1695   5.2201

          k =-0.3170 0.3170-0.3170 (  1910 PWs)   bands (ev):

    -5.7763   0.5252   3.5414   3.5414

          k = 0.6341-0.6341 0.6341 (  1916 PWs)   bands (ev):

    -4.5983  -1.9339   3.1567   3.1567

          k = 0.0000 0.6341 0.0000 (  1924 PWs)   bands (ev):

    -5.5400   0.5560   2.6519   2.6519

          k = 0.9511-0.3170 0.9511 (  1903 PWs)   bands (ev):

    -4.2365  -1.7358   1.3051   2.3748

          k = 0.6341 0.0000 0.6341 (  1915 PWs)   bands (ev):

    -4.7739  -1.0009   1.1845   3.0720

          k = 0.0000-1.2682 0.0000 (  1868 PWs)   bands (ev):

    -3.0307  -3.0307   1.8469   1.8469

          k =-0.6341-1.2682 0.0000 (  1888 PWs)   bands (ev):

    -2.9435  -2.9435   1.1461   1.1461

     highest occupied level (ev):     5.2201

!    total energy              =     -22.79773763 Ry
     Harris-Foulkes estimate   =     -22.79773763 Ry
     estimated scf accuracy    <          2.1E-11 Ry

     The total energy is the sum of the following terms:

     one-electron contribution =       3.56519288 Ry
     hartree contribution      =       1.32622443 Ry
     xc contribution           =     -12.07452360 Ry
     ewald contribution        =     -15.61463134 Ry

     convergence has been achieved in   8 iterations

     Forces acting on atoms (cartesian axes, Ry/au):

     atom    1 type  1   force =     0.00000000    0.00000000    0.00000000
     atom    2 type  1   force =     0.00000000    0.00000000    0.00000000

     Total force =     0.000000     Total SCF correction =     0.000000


     Computing stress (Cartesian axis) and pressure

          total   stress  (Ry/bohr**3)                   (kbar)     P=     -102.04
  -0.00069366   0.00000000  -0.00000000         -102.04        0.00       -0.00
   0.00000000  -0.00069366  -0.00000000            0.00     -102.04       -0.00
   0.00000000  -0.00000000  -0.00069366            0.00       -0.00     -102.04


     number of scf cycles    =   9
     number of bfgs steps    =   8

     enthalpy old            =     -22.7479810529 Ry
     enthalpy new            =     -22.7977376309 Ry

     CASE: enthalpy_new < enthalpy_old

     new trust radius        =       0.3092934655 bohr
ibrav =      2
 celldm(1) =     10.10860260
Input lattice vectors:
    -0.36102152     0.00000000     0.36102152
    -0.00000000     0.36102152     0.36102152
    -0.36102152     0.36102152     0.00000000
New lattice vectors in INITIAL alat:
    -0.36102152     0.00000000     0.36102152
     0.00000000     0.36102152     0.36102152
    -0.36102152     0.36102152     0.00000000
New lattice vectors in NEW alat (for information only):
    -0.50000000     0.00000000     0.50000000
     0.00000000     0.50000000     0.50000000
    -0.50000000     0.50000000     0.00000000
Discrepancy in bohr =     0.000000    0.000000    0.000000
     new conv_thr            =       0.0000000010 Ry

     new unit-cell volume =    258.23397 a.u.^3 (    38.26633 Ang^3 )
     density =      2.43746 g/cm^3

CELL_PARAMETERS (alat= 14.00000006)
  -0.361021520   0.000000000   0.361021520
   0.000000000   0.361021520   0.361021520
  -0.361021520   0.361021520   0.000000000

ATOMIC_POSITIONS (angstrom)
Si            0.0000000000       -0.0000000000       -0.0000000000
Si            1.3373105266        1.3373105266        1.3373105266



     Writing output data file ./Si/Si.save/
     NEW-OLD atomic charge density approx. for the potential
     extrapolated charge    5.58044, renormalised to    8.00000

     total cpu time spent up to now is       57.8 secs

     Self-consistent Calculation

     iteration #  1     ecut=    30.00 Ry     beta= 0.70
     Davidson diagonalization with overlap
     ethr =  1.00E-06,  avg # of iterations =  6.0

     total cpu time spent up to now is       58.2 secs

     total energy              =     -22.74497857 Ry
     Harris-Foulkes estimate   =     -21.48254049 Ry
     estimated scf accuracy    <       0.07511583 Ry

     iteration #  2     ecut=    30.00 Ry     beta= 0.70
     Davidson diagonalization with overlap
     ethr =  9.39E-04,  avg # of iterations =  3.0

     total cpu time spent up to now is       58.6 secs

     total energy              =     -22.81272886 Ry
     Harris-Foulkes estimate   =     -22.81885923 Ry
     estimated scf accuracy    <       0.02000488 Ry

     iteration #  3     ecut=    30.00 Ry     beta= 0.70
     Davidson diagonalization with overlap
     ethr =  2.50E-04,  avg # of iterations =  1.4

     total cpu time spent up to now is       58.8 secs

     total energy              =     -22.81256236 Ry
     Harris-Foulkes estimate   =     -22.81393809 Ry
     estimated scf accuracy    <       0.00344359 Ry

     iteration #  4     ecut=    30.00 Ry     beta= 0.70
     Davidson diagonalization with overlap
     ethr =  4.30E-05,  avg # of iterations =  2.0

     total cpu time spent up to now is       59.2 secs

     total energy              =     -22.81296095 Ry
     Harris-Foulkes estimate   =     -22.81301923 Ry
     estimated scf accuracy    <       0.00014644 Ry

     iteration #  5     ecut=    30.00 Ry     beta= 0.70
     Davidson diagonalization with overlap
     ethr =  1.83E-06,  avg # of iterations =  2.2

     total cpu time spent up to now is       59.5 secs

     total energy              =     -22.81298779 Ry
     Harris-Foulkes estimate   =     -22.81298911 Ry
     estimated scf accuracy    <       0.00000681 Ry

     iteration #  6     ecut=    30.00 Ry     beta= 0.70
     Davidson diagonalization with overlap
     ethr =  8.51E-08,  avg # of iterations =  2.0

     total cpu time spent up to now is       59.8 secs

     total energy              =     -22.81298750 Ry
     Harris-Foulkes estimate   =     -22.81298883 Ry
     estimated scf accuracy    <       0.00000295 Ry

     iteration #  7     ecut=    30.00 Ry     beta= 0.70
     Davidson diagonalization with overlap
     ethr =  3.68E-08,  avg # of iterations =  2.1

     total cpu time spent up to now is       60.1 secs

     total energy              =     -22.81298796 Ry
     Harris-Foulkes estimate   =     -22.81298803 Ry
     estimated scf accuracy    <       0.00000018 Ry

     iteration #  8     ecut=    30.00 Ry     beta= 0.70
     Davidson diagonalization with overlap
     ethr =  2.25E-09,  avg # of iterations =  1.9

     total cpu time spent up to now is       60.4 secs

     total energy              =     -22.81298798 Ry
     Harris-Foulkes estimate   =     -22.81298798 Ry
     estimated scf accuracy    <          5.8E-09 Ry

     iteration #  9     ecut=    30.00 Ry     beta= 0.70
     Davidson diagonalization with overlap
     ethr =  7.22E-11,  avg # of iterations =  2.5

     total cpu time spent up to now is       60.7 secs

     total energy              =     -22.81298798 Ry
     Harris-Foulkes estimate   =     -22.81298798 Ry
     estimated scf accuracy    <          2.7E-09 Ry

     iteration # 10     ecut=    30.00 Ry     beta= 0.70
     Davidson diagonalization with overlap
     ethr =  3.42E-11,  avg # of iterations =  1.1

     total cpu time spent up to now is       61.0 secs

     End of self-consistent calculation

          k = 0.0000 0.0000 0.0000 (  1917 PWs)   bands (ev):

    -5.5603   6.7303   6.7303  10.6218

          k =-0.3462 0.3462-0.3462 (  1910 PWs)   bands (ev):

    -4.7274   2.7050   5.9360   5.9360

          k = 0.6925-0.6925 0.6925 (  1916 PWs)   bands (ev):

    -3.1086  -0.4738   5.4855   5.4855

          k = 0.0000 0.6925 0.0000 (  1924 PWs)   bands (ev):

    -4.4349   3.2158   4.7436   4.7436

          k = 1.0387-0.3462 1.0387 (  1903 PWs)   bands (ev):

    -2.7204   0.2107   3.0319   4.4205

          k = 0.6925 0.0000 0.6925 (  1915 PWs)   bands (ev):

    -3.4273   1.1557   2.7845   5.3433

          k = 0.0000-1.3850 0.0000 (  1868 PWs)   bands (ev):

    -1.2456  -1.2456   3.7443   3.7443

          k =-0.6925-1.3850 0.0000 (  1888 PWs)   bands (ev):

    -1.0590  -1.0590   2.6644   2.6644

     highest occupied level (ev):    10.6218

!    total energy              =     -22.81298798 Ry
     Harris-Foulkes estimate   =     -22.81298798 Ry
     estimated scf accuracy    <          4.9E-10 Ry

     The total energy is the sum of the following terms:

     one-electron contribution =       5.53326930 Ry
     hartree contribution      =       1.08373264 Ry
     xc contribution           =     -12.37743140 Ry
     ewald contribution        =     -17.05255852 Ry

     convergence has been achieved in  10 iterations

[...]
     Davidson diagonalization with overlap
     ethr =  9.77E-08,  avg # of iterations =  3.2

     total cpu time spent up to now is      126.9 secs

     total energy              =     -22.82667259 Ry
     Harris-Foulkes estimate   =     -22.82667445 Ry
     estimated scf accuracy    <       0.00000654 Ry

     iteration #  3     ecut=    30.00 Ry     beta= 0.70
     Davidson diagonalization with overlap
     ethr =  8.17E-08,  avg # of iterations =  1.0

     total cpu time spent up to now is      127.2 secs

     total energy              =     -22.82667189 Ry
     Harris-Foulkes estimate   =     -22.82667278 Ry
     estimated scf accuracy    <       0.00000191 Ry

     iteration #  4     ecut=    30.00 Ry     beta= 0.70
     Davidson diagonalization with overlap
     ethr =  2.39E-08,  avg # of iterations =  2.1

     total cpu time spent up to now is      127.5 secs

     total energy              =     -22.82667218 Ry
     Harris-Foulkes estimate   =     -22.82667220 Ry
     estimated scf accuracy    <       0.00000008 Ry

     iteration #  5     ecut=    30.00 Ry     beta= 0.70
     Davidson diagonalization with overlap
     ethr =  9.65E-10,  avg # of iterations =  2.1

     total cpu time spent up to now is      127.7 secs

     total energy              =     -22.82667217 Ry
     Harris-Foulkes estimate   =     -22.82667219 Ry
     estimated scf accuracy    <       0.00000003 Ry

     iteration #  6     ecut=    30.00 Ry     beta= 0.70
     Davidson diagonalization with overlap
     ethr =  3.80E-10,  avg # of iterations =  1.6

     total cpu time spent up to now is      128.0 secs

     End of self-consistent calculation

          k = 0.0000 0.0000 0.0000 (  1917 PWs)   bands (ev):

    -5.8221   5.9599   5.9599   5.9599

          k =-0.3379 0.3379-0.3379 (  1910 PWs)   bands (ev):

    -5.0415   2.0751   5.2138   5.2138

          k = 0.6759-0.6759 0.6759 (  1916 PWs)   bands (ev):

    -3.5575  -0.8930   4.7805   4.7805

          k = 0.0000 0.6759 0.0000 (  1924 PWs)   bands (ev):

    -4.7653   2.4348   4.1128   4.1128

          k = 1.0138-0.3379 1.0138 (  1903 PWs)   bands (ev):

    -3.1732  -0.3565   2.5048   3.8022

          k = 0.6759 0.0000 0.6759 (  1915 PWs)   bands (ev):

    -3.8293   0.5232   2.3005   4.6572

          k = 0.0000-1.3517 0.0000 (  1868 PWs)   bands (ev):

    -1.7751  -1.7751   3.1696   3.1696

          k =-0.6759-1.3517 0.0000 (  1888 PWs)   bands (ev):

    -1.6225  -1.6225   2.2100   2.2100

     highest occupied level (ev):     5.9599

!    total energy              =     -22.82667218 Ry
     Harris-Foulkes estimate   =     -22.82667218 Ry
     estimated scf accuracy    <          1.6E-10 Ry

     The total energy is the sum of the following terms:

     one-electron contribution =       4.95476003 Ry
     hartree contribution      =       1.14878644 Ry
     xc contribution           =     -12.28714544 Ry
     ewald contribution        =     -16.64307320 Ry

     convergence has been achieved in   6 iterations

     Forces acting on atoms (cartesian axes, Ry/au):

     atom    1 type  1   force =    -0.00000000   -0.00000000   -0.00000000
     atom    2 type  1   force =     0.00000000    0.00000000    0.00000000

     Total force =     0.000000     Total SCF correction =     0.000000


     Computing stress (Cartesian axis) and pressure

          total   stress  (Ry/bohr**3)                   (kbar)     P=        0.05
   0.00000037   0.00000000   0.00000000            0.05        0.00        0.00
   0.00000000   0.00000037   0.00000000            0.00        0.05        0.00
   0.00000000   0.00000000   0.00000037            0.00        0.00        0.05


     number of scf cycles    =  24
     number of bfgs steps    =  23

     enthalpy old            =     -22.8266551479 Ry
     enthalpy new            =     -22.8266721766 Ry

     CASE: enthalpy_new < enthalpy_old

     small trust_radius: resetting bfgs history

     new trust radius        =       0.0000308330 bohr
ibrav =      2
 celldm(1) =     10.35740995
Input lattice vectors:
    -0.36990750     0.00000000     0.36990750
     0.00000000     0.36990750     0.36990750
    -0.36990750     0.36990750     0.00000000
New lattice vectors in INITIAL alat:
    -0.36990750     0.00000000     0.36990750
     0.00000000     0.36990750     0.36990750
    -0.36990750     0.36990750     0.00000000
New lattice vectors in NEW alat (for information only):
    -0.50000000     0.00000000     0.50000000
     0.00000000     0.50000000     0.50000000
    -0.50000000     0.50000000     0.00000000
Discrepancy in bohr =     0.000000    0.000000    0.000000
     new conv_thr            =       0.0000000010 Ry

     new unit-cell volume =    277.77522 a.u.^3 (    41.16204 Ang^3 )
     density =      2.26598 g/cm^3

CELL_PARAMETERS (alat= 14.00000006)
  -0.369907496   0.000000000   0.369907496
   0.000000000   0.369907496   0.369907496
  -0.369907496   0.369907496   0.000000000

ATOMIC_POSITIONS (angstrom)
Si           -0.0000000000       -0.0000000000        0.0000000000
Si            1.3702263201        1.3702263201        1.3702263201



     Writing output data file ./Si/Si.save/
     NEW-OLD atomic charge density approx. for the potential

     Check: negative core charge=   -0.000001
     extrapolated charge    8.00022, renormalised to    8.00000

     total cpu time spent up to now is      130.3 secs

     Self-consistent Calculation

     iteration #  1     ecut=    30.00 Ry     beta= 0.70
     Davidson diagonalization with overlap
     ethr =  1.00E-06,  avg # of iterations =  1.0

     Threshold (ethr) on eigenvalues was too large:
     Diagonalizing with lowered threshold

     Davidson diagonalization with overlap
     ethr =  5.67E-12,  avg # of iterations =  3.0

     total cpu time spent up to now is      130.7 secs

     End of self-consistent calculation

          k = 0.0000 0.0000 0.0000 (  1917 PWs)   bands (ev):

    -5.8221   5.9597   5.9597   5.9597

          k =-0.3379 0.3379-0.3379 (  1910 PWs)   bands (ev):

    -5.0416   2.0749   5.2136   5.2136

          k = 0.6758-0.6758 0.6758 (  1916 PWs)   bands (ev):

    -3.5576  -0.8932   4.7803   4.7803

          k = 0.0000 0.6758 0.0000 (  1924 PWs)   bands (ev):

    -4.7654   2.4346   4.1126   4.1126

          k = 1.0138-0.3379 1.0138 (  1903 PWs)   bands (ev):

    -3.1733  -0.3566   2.5046   3.8020

          k = 0.6758 0.0000 0.6758 (  1915 PWs)   bands (ev):

    -3.8293   0.5230   2.3003   4.6570

          k = 0.0000-1.3517 0.0000 (  1868 PWs)   bands (ev):

    -1.7752  -1.7752   3.1694   3.1694

          k =-0.6758-1.3517 0.0000 (  1888 PWs)   bands (ev):

    -1.6226  -1.6226   2.2099   2.2099

     highest occupied level (ev):     5.9597

!    total energy              =     -22.82667218 Ry
     Harris-Foulkes estimate   =     -22.82679350 Ry
     estimated scf accuracy    <          5.8E-10 Ry

     The total energy is the sum of the following terms:

     one-electron contribution =       4.95457144 Ry
     hartree contribution      =       1.14876144 Ry
     xc contribution           =     -12.28708581 Ry
     ewald contribution        =     -16.64291926 Ry

     convergence has been achieved in   1 iterations

     Forces acting on atoms (cartesian axes, Ry/au):

     atom    1 type  1   force =    -0.00000000   -0.00000000    0.00000000
     atom    2 type  1   force =     0.00000000    0.00000000   -0.00000000

     Total force =     0.000000     Total SCF correction =     0.000000


     Computing stress (Cartesian axis) and pressure

          total   stress  (Ry/bohr**3)                   (kbar)     P=       -0.00
  -0.00000002  -0.00000000  -0.00000000           -0.00       -0.00       -0.00
  -0.00000000  -0.00000002   0.00000000           -0.00       -0.00        0.00
  -0.00000000   0.00000000  -0.00000002           -0.00        0.00       -0.00

ibrav =      2
 celldm(1) =     10.35740995
Input lattice vectors:
    -0.36990750     0.00000000     0.36990750
     0.00000000     0.36990750     0.36990750
    -0.36990750     0.36990750     0.00000000
New lattice vectors in INITIAL alat:
    -0.36990750     0.00000000     0.36990750
     0.00000000     0.36990750     0.36990750
    -0.36990750     0.36990750     0.00000000
New lattice vectors in NEW alat (for information only):
    -0.50000000     0.00000000     0.50000000
     0.00000000     0.50000000     0.50000000
    -0.50000000     0.50000000     0.00000000
Discrepancy in bohr =     0.000000    0.000000    0.000000

     bfgs converged in  25 scf cycles and  24 bfgs steps
     (criteria: energy <  1.0E-05 Ry, force <  1.0E-04Ry/Bohr, cell <  5.0E-01kbar)

     End of BFGS Geometry Optimization

     Final enthalpy =     -22.8266721779 Ry
Begin final coordinates
     new unit-cell volume =    277.77522 a.u.^3 (    41.16204 Ang^3 )
     density =      2.26598 g/cm^3

CELL_PARAMETERS (alat= 14.00000006)
  -0.369907496   0.000000000   0.369907496
   0.000000000   0.369907496   0.369907496
  -0.369907496   0.369907496   0.000000000

ATOMIC_POSITIONS (angstrom)
Si           -0.0000000000       -0.0000000000        0.0000000000
Si            1.3702263201        1.3702263201        1.3702263201
End final coordinates



     Writing output data file ./Si/Si.save/

     Final scf calculation at the relaxed structure.
     The G-vectors are recalculated for the final unit cell
     Results may differ from those at the preceding step.

     G-vector sticks info
     --------------------
     sticks:   dense  smooth     PW     G-vecs:    dense   smooth      PW
     Sum         439     439    139                 6183     6183    1067



     bravais-lattice index     =            2
     lattice parameter (alat)  =      14.0000  a.u.
     unit-cell volume          =     277.7752 (a.u.)^3
     number of atoms/cell      =            2
     number of atomic types    =            1
     number of electrons       =         8.00
     number of Kohn-Sham states=            4
     kinetic-energy cutoff     =      30.0000  Ry
     charge density cutoff     =     120.0000  Ry
     convergence threshold     =      1.0E-09
     mixing beta               =       0.7000
     number of iterations used =            8  plain     mixing
     Exchange-correlation= PBE
                           (   1   4   3   4   0   0   0)

     celldm(1)=  14.000000  celldm(2)=   0.000000  celldm(3)=   0.000000
     celldm(4)=   0.000000  celldm(5)=   0.000000  celldm(6)=   0.000000

     crystal axes: (cart. coord. in units of alat)
               a(1) = (  -0.369907   0.000000   0.369907 )  
               a(2) = (   0.000000   0.369907   0.369907 )  
               a(3) = (  -0.369907   0.369907   0.000000 )  

     reciprocal axes: (cart. coord. in units 2 pi/alat)
               b(1) = ( -1.351689 -1.351689  1.351689 )  
               b(2) = (  1.351689  1.351689  1.351689 )  
               b(3) = ( -1.351689  1.351689 -1.351689 )  


     PseudoPot. # 1 for Si read from file:
     /Users/matt/QE/SSSP_precision_pseudos/Si.pbe-n-rrkjus_psl.1.0.0.UPF
     MD5 check sum: 0b0bb1205258b0d07b9f9672cf965d36
     Pseudo is Ultrasoft + core correction, Zval =  4.0
     Generated using "atomic" code by A. Dal Corso v.5.1
     Using radial grid of 1141 points,  6 beta functions with: 
                l(1) =   0
                l(2) =   0
                l(3) =   1
                l(4) =   1
                l(5) =   2
                l(6) =   2
     Q(r) pseudized with 0 coefficients 


     atomic species   valence    mass     pseudopotential
        Si             4.00    28.08500     Si( 1.00)

     48 Sym. Ops., with inversion, found (24 have fractional translation)



   Cartesian axes

     site n.     atom                  positions (alat units)
         1           Si  tau(   1) = (  -0.0000000  -0.0000000   0.0000000  )
         2           Si  tau(   2) = (   0.1849537   0.1849537   0.1849537  )

     number of k points=     8
                       cart. coord. in units 2pi/alat
        k(    1) = (   0.0000000   0.0000000   0.0000000), wk =   0.0312500
        k(    2) = (  -0.3379223   0.3379223  -0.3379223), wk =   0.2500000
        k(    3) = (   0.6758446  -0.6758446   0.6758446), wk =   0.1250000
        k(    4) = (   0.0000000   0.6758446   0.0000000), wk =   0.1875000
        k(    5) = (   1.0137670  -0.3379223   1.0137670), wk =   0.7500000
        k(    6) = (   0.6758446   0.0000000   0.6758446), wk =   0.3750000
        k(    7) = (   0.0000000  -1.3516893   0.0000000), wk =   0.0937500
        k(    8) = (  -0.6758446  -1.3516893   0.0000000), wk =   0.1875000

     Dense  grid:     6183 G-vectors     FFT dimensions: (  32,  32,  32)

     Estimated max dynamical RAM per process >      28.66 MB

     Check: negative core charge=   -0.000004

     Initial potential from superposition of free atoms

     starting charge    7.99888, renormalised to    8.00000
     Starting wfcs are    8 randomized atomic wfcs

     total cpu time spent up to now is      133.2 secs

     Self-consistent Calculation

     iteration #  1     ecut=    30.00 Ry     beta= 0.70
     Davidson diagonalization with overlap
     ethr =  1.00E-06,  avg # of iterations =  6.8

     total cpu time spent up to now is      133.4 secs

     total energy              =     -22.82399887 Ry
     Harris-Foulkes estimate   =     -22.83837352 Ry
     estimated scf accuracy    <       0.06030825 Ry

     iteration #  2     ecut=    30.00 Ry     beta= 0.70
     Davidson diagonalization with overlap
     ethr =  7.54E-04,  avg # of iterations =  1.0

     total cpu time spent up to now is      133.6 secs

     total energy              =     -22.82613175 Ry
     Harris-Foulkes estimate   =     -22.82625549 Ry
     estimated scf accuracy    <       0.00260079 Ry

     iteration #  3     ecut=    30.00 Ry     beta= 0.70
     Davidson diagonalization with overlap
     ethr =  3.25E-05,  avg # of iterations =  1.8

     total cpu time spent up to now is      133.7 secs

     total energy              =     -22.82642511 Ry
     Harris-Foulkes estimate   =     -22.82642349 Ry
     estimated scf accuracy    <       0.00002996 Ry

     iteration #  4     ecut=    30.00 Ry     beta= 0.70
     Davidson diagonalization with overlap
     ethr =  3.75E-07,  avg # of iterations =  3.5

     total cpu time spent up to now is      133.8 secs

     total energy              =     -22.82646717 Ry
     Harris-Foulkes estimate   =     -22.82646773 Ry
     estimated scf accuracy    <       0.00000271 Ry

     iteration #  5     ecut=    30.00 Ry     beta= 0.70
     Davidson diagonalization with overlap
     ethr =  3.39E-08,  avg # of iterations =  2.4

     total cpu time spent up to now is      134.0 secs

     total energy              =     -22.82646756 Ry
     Harris-Foulkes estimate   =     -22.82646800 Ry
     estimated scf accuracy    <       0.00000084 Ry

     iteration #  6     ecut=    30.00 Ry     beta= 0.70
     Davidson diagonalization with overlap
     ethr =  1.05E-08,  avg # of iterations =  2.0

     total cpu time spent up to now is      134.2 secs

     total energy              =     -22.82646767 Ry
     Harris-Foulkes estimate   =     -22.82646769 Ry
     estimated scf accuracy    <       0.00000003 Ry

     iteration #  7     ecut=    30.00 Ry     beta= 0.70
     Davidson diagonalization with overlap
     ethr =  3.61E-10,  avg # of iterations =  2.4

     total cpu time spent up to now is      134.3 secs

     End of self-consistent calculation

          k = 0.0000 0.0000 0.0000 (   749 PWs)   bands (ev):

    -5.8214   5.9608   5.9608   5.9608

          k =-0.3379 0.3379-0.3379 (   778 PWs)   bands (ev):

    -5.0408   2.0756   5.2144   5.2144

          k = 0.6758-0.6758 0.6758 (   778 PWs)   bands (ev):

    -3.5568  -0.8925   4.7810   4.7810

          k = 0.0000 0.6758 0.0000 (   769 PWs)   bands (ev):

    -4.7646   2.4354   4.1133   4.1133

          k = 1.0138-0.3379 1.0138 (   768 PWs)   bands (ev):

    -3.1725  -0.3559   2.5053   3.8026

          k = 0.6758 0.0000 0.6758 (   784 PWs)   bands (ev):

    -3.8286   0.5238   2.3010   4.6576

          k = 0.0000-1.3517 0.0000 (   774 PWs)   bands (ev):

    -1.7745  -1.7745   3.1700   3.1700

          k =-0.6758-1.3517 0.0000 (   772 PWs)   bands (ev):

    -1.6218  -1.6218   2.2105   2.2105

     highest occupied level (ev):     5.9608

!    total energy              =     -22.82646768 Ry
     Harris-Foulkes estimate   =     -22.82646768 Ry
     estimated scf accuracy    <          7.2E-11 Ry

     The total energy is the sum of the following terms:

     one-electron contribution =       4.95465730 Ry
     hartree contribution      =       1.14875695 Ry
     xc contribution           =     -12.28696263 Ry
     ewald contribution        =     -16.64291930 Ry

     convergence has been achieved in   7 iterations

     Forces acting on atoms (cartesian axes, Ry/au):

     atom    1 type  1   force =    -0.00000000   -0.00000000   -0.00000000
     atom    2 type  1   force =     0.00000000    0.00000000    0.00000000

     Total force =     0.000000     Total SCF correction =     0.000000


     Computing stress (Cartesian axis) and pressure

          total   stress  (Ry/bohr**3)                   (kbar)     P=        0.25
   0.00000173  -0.00000000  -0.00000000            0.25       -0.00       -0.00
  -0.00000000   0.00000173   0.00000000           -0.00        0.25        0.00
  -0.00000000   0.00000000   0.00000173           -0.00        0.00        0.25


     Writing output data file ./Si/Si.save/

     init_run     :      2.27s CPU      2.41s WALL (       2 calls)
     electrons    :     61.43s CPU     67.13s WALL (      26 calls)
     update_pot   :     16.36s CPU     18.39s WALL (      24 calls)
     forces       :     11.24s CPU     12.78s WALL (      26 calls)
     stress       :     28.79s CPU     31.60s WALL (      26 calls)

     Called by init_run:
     wfcinit      :      0.14s CPU      0.15s WALL (       2 calls)
     potinit      :      0.29s CPU      0.31s WALL (       2 calls)
     hinit0       :      1.77s CPU      1.81s WALL (       2 calls)

     Called by electrons:
     c_bands      :     33.20s CPU     34.31s WALL (     212 calls)
     sum_band     :     16.32s CPU     15.16s WALL (     212 calls)
     v_of_rho     :      4.77s CPU      5.89s WALL (     224 calls)
     newd         :      7.88s CPU     11.97s WALL (     224 calls)
     mix_rho      :      0.57s CPU      1.66s WALL (     212 calls)

     Called by c_bands:
     init_us_2    :      2.32s CPU      2.58s WALL (    3824 calls)
     cegterg      :     27.31s CPU     27.95s WALL (    1696 calls)

     Called by sum_band:
     sum_band:bec :      0.02s CPU      0.03s WALL (    1696 calls)
     addusdens    :     10.23s CPU      8.77s WALL (     212 calls)

     Called by *egterg:
     h_psi        :     23.20s CPU     23.98s WALL (    5479 calls)
     s_psi        :      1.77s CPU      1.29s WALL (    5479 calls)
     g_psi        :      0.16s CPU      0.18s WALL (    3767 calls)
     cdiaghg      :      0.26s CPU      0.30s WALL (    5159 calls)

     Called by h_psi:
     h_psi:calbec :      2.02s CPU      1.48s WALL (    5479 calls)
     vloc_psi     :     19.23s CPU     20.86s WALL (    5479 calls)
     add_vuspsi   :      1.85s CPU      1.39s WALL (    5479 calls)

     General routines
     calbec       :      3.01s CPU      2.20s WALL (    8215 calls)
     fft          :      1.99s CPU      2.17s WALL (    3152 calls)
     ffts         :      0.14s CPU      0.15s WALL (     212 calls)
     fftw         :     19.35s CPU     21.02s WALL (   45804 calls)

     Parallel routines

     PWSCF        :   2m 2.00s CPU   2m14.96s WALL


   This run was terminated on:  16:19:41  27Feb2020            

=------------------------------------------------------------------------------=
   JOB DONE.
=------------------------------------------------------------------------------=
